ITEM: TIMESTEP
0
ITEM: NUMBER OF ATOMS
20000
ITEM: BOX BOUNDS pp pp pp
0.0000000000000000e+00 2.0000000000000000e+01
0.0000000000000000e+00 2.0000000000000000e+01
0.0000000000000000e+00 2.0000000000000000e+01
ITEM: ATOMS id vx vy vz
1 -2.28349 3.64159 3.40635
2 -5.97336 0.0839201 5.28097
3 -2.04513 -0.660142 0.791314
4 0.36408 -3.72389 0.896572
5 0.410352 -6.03711 0.389033
6 -0.429625 -0.637897 -1.46303
7 0.387333 -1.04014 1.49275
8 -5.50859 -2.50783 1.13994
9 -0.848719 1.78388 -0.131699
10 4.04724 1.16822 -1.16226
11 3.27294 0.415046 1.87266
12 3.30725 1.17099 4.37344
13 -4.32907 0.757151 2.09257
14 -1.76007 -2.76281 -0.673697
15 -1.65011 -1.50116 -0.863079
16 0.939978 -1.7581 1.57155
17 0.550507 1.81306 -5.44606
18 1.93829 2.57948 5.00023
19 -2.49822 2.45593 3.50243
20 -1.9303 0.826616 -0.00160203
21 0.364173 3.23899 4.69931
22 -2.77859 -1.76092 -2.71439
23 3.57565 -0.725812 -2.1771
24 -3.38791 4.02279 -0.515586
25 3.44349 -0.0713921 -0.0666168
26 -1.33013 -3.69451 -4.70732
27 1.30212 -1.5082 -0.446512
28 -3.31957 0.816531 0.739864
29 7.62656 6.39509 -0.146102
30 -3.92041 3.67942 6.91303
31 -0.51313 1.98273 -1.08638
32 -0.858528 6.31215 -0.88744
33 -6.66756 -4.1759 3.78807
34 -4.35263 4.12059 3.3309
35 2.66886 -3.76081 -6.12994
36 -2.31483 4.485 -1.1337
37 1.69274 -1.83883 3.4952
38 6.0908 -0.843068 0.842227
39 -5.85183 -0.348813 -2.11244
40 1.84247 -1.5829 1.849
41 -2.10329 -1.36562 0.167671
42 1.31227 -1.11972 -0.161193
43 3.35184 2.43352 -1.13134
44 0.590379 0.155745 6.44676
45 0.111384 -0.174027 -0.693776
46 0.152313 4.83954 -0.434724
47 8.05429 3.83559 8.00839
48 5.71144 5.22143 2.3175
49 -0.664956 -3.24089 -1.46018
50 4.96567 3.96334 -1.08462
51 0.549145 1.45174 3.38213
52 1.61281 2.37753 -2.83266
53 -0.343805 3.21156 0.90502
54 2.79004 -0.8828 4.33884
55 -5.08935 -0.790153 -0.89631
56 -4.45042 4.51061 -1.17439
57 -4.35846 3.49332 1.05363
58 6.93049 -0.730446 -0.125604
59 2.90139 -8.03579 -0.980437
60 3.82416 6.05026 2.64594
61 -1.05324 3.1842 -0.331755
62 -3.92445 2.61832 -5.70638
63 -0.0731793 -0.191359 0.944454
64 1.94384 0.409441 -1.9397
65 -6.52406 3.73022 0.0052132
66 -1.18439 -3.50577 -4.16428
67 -0.111629 5.31436 2.2527
68 2.2236 1.55573 3.0713
69 2.60437 2.72147 1.08328
70 -1.04203 2.13292 1.82287
71 -0.9506 -1.40317 -1.99608
72 8.62058 5.9132 1.23611
73 -6.56782 1.81934 0.144115
74 -0.19325 0.573259 1.54522
75 -0.196075 -0.392015 0.529223
76 -1.05302 -0.582171 -3.80177
77 -1.68218 -1.14366 1.77583
78 -3.67058 -5.87972 -0.511811
79 0.0887712 0.29277 1.59122
80 4.67567 -6.22609 -1.60725
81 -4.88698 2.00795 -4.55206
82 -1.22201 -0.68373 -3.90151
83 -3.78625 -0.872627 2.13152
84 -3.07562 2.99682 -1.13292
85 -2.8154 -0.573011 1.35239
86 -3.01128 1.83547 -5.68736
87 0.0816508 -0.183503 5.38952
88 0.00707705 -0.977792 -1.14006
89 0.422608 -0.349866 0.724212
90 -3.22787 6.40231 0.891315
91 -5.00313 5.14347 4.80636
92 -2.617 4.90386 -3.61489
93 6.27123 3.25058 0.766065
94 5.08619 0.694051 7.37435
95 -2.26391 2.12227 0.872001
96 1.17992 1.26505 1.63526
97 0.586744 1.71179 -2.16199
98 -1.40351 1.66765 4.67659
99 3.26454 -1.85841 -1.77666
100 -2.10316 0.52107 -2.05656
101 -4.49326 1.62956 -2.64585
102 -3.46152 2.33094 -0.760737
103 7.62249 -2.80039 1.57997
104 3.44587 2.55822 2.64014
105 -3.69057 -0.132903 1.23164
106 5.97176 2.08572 -2.31127
107 -5.81125 2.91617 10.66
108 3.90035 -5.7425 -4.91877
109 1.7645 0.0698452 1.11499
110 -0.241914 1.11332 1.80213
111 6.58563 1.6623 1.16669
112 1.13384 0.619931 -4.66478
113 3.70354 1.4049 0.283943
114 1.21745 -0.988303 -5.27375
115 -7.68113 1.71394 -2.29138
116 3.86328 5.52237 3.20618
117 3.93585 9.13001 0.764422
118 -2.66138 -1.50939 0.421371
119 -0.101303 -4.74548 -0.360691
120 10.0049 6.07637 -1.2716
121 -1.35592 2.37669 -0.933213
122 4.97265 -3.08248 2.8394
123 -2.0021 -4.51644 -1.29156
124 3.84383 -2.26531 -0.158095
125 2.71231 2.63725 6.28881
126 -3.57841 -2.11029 1.04965
127 0.115578 -1.61747 0.291218
128 -3.41384 -0.0115101 6.41104
129 -6.59921 2.88006 -2.82418
130 -0.0500084 -6.75371 -6.09708
131 -0.771578 -3.47706 -2.86419
132 -0.516022 -1.86672 5.28343
133 -0.174389 5.24822 2.29083
134 -0.0204228 0.16233 -1.95181
135 -0.112191 -2.5115 8.30892
136 1.8994 3.33567 7.04796
137 5.63139 1.18853 3.57106
138 -0.971589 1.37579 -0.201136
139 -4.13038 -1.512 4.36
140 0.390285 9.8852 -2.4089
141 2.87562 1.65128 -5.35735
142 -7.96753 0.079602 -4.38674
143 0.441873 -2.60787 -3.81776
144 3.22511 6.771 1.63855
145 -1.55319 2.72837 -1.72
146 -1.81764 -4.97724 -0.448498
147 -1.1063 -5.4042 -5.75178
148 0.88787 3.4245 0.303562
149 1.91058 0.711439 1.98149
150 4.48014 3.25354 -5.93155
151 6.98156 2.31175 -5.20883
152 -1.70439 -3.04993 1.24357
153 3.32097 0.770219 -3.61952
154 0.320814 -3.39584 -1.79683
155 -1.73684 -2.01067 4.27593
156 1.57297 -2.55655 -4.67254
157 1.25477 -7.39539 0.312138
158 -0.831228 -3.68398 4.63602
159 -10.1859 3.42248 3.20945
160 -0.0130344 -3.6444 4.85349
161 -1.97795 0.888647 1.45884
162 -2.38112 -0.923963 0.119634
163 -5.1548 4.98736 -1.33225
164 5.18129 0.830305 -3.70571
165 -1.2349 -1.25871 -4.84986
166 -0.37072 -4.00446 4.49339
167 0.942805 -4.7787 -4.01803
168 -4.04059 -0.41625 6.9365
169 3.20884 -1.94101 -2.00171
170 -2.01632 0.732316 0.677939
171 -1.85861 -1.986 0.230678
172 -0.274201 -1.16159 0.385061
173 3.38584 2.27218 0.237785
174 4.2187 3.92558 -6.78068
175 1.38528 -3.20001 -3.72015
176 2.37441 -0.130373 -1.30251
177 0.50878 -2.18366 3.3646
178 1.42583 -0.540226 1.82149
179 -5.60865 -6.12926 -0.39848
180 -2.55803 -2.11319 2.7972
181 -1.18491 -0.178888 -1.60592
182 -2.39469 -2.59154 6.36606
183 -6.29462 0.624517 4.2133
184 -2.51771 -3.33285 3.18251
185 7.46182 3.51031 0.430334
186 -1.01328 -3.33992 5.86235
187 8.01181 0.426784 -0.510413
188 -1.58238 -6.09479 0.830712
189 0.606663 -3.69038 0.536134
190 2.32666 2.27708 -3.94637
191 6.41047 -0.611987 -0.550314
192 3.14568 -4.24932 -3.92424
193 0.574857 -3.13635 1.07411
194 1.37523 6.16681 -1.11983
195 1.8401 4.67845 -0.149881
196 1.2522 2.8709 -2.04671
197 2.00748 6.47476 2.60944
198 2.79227 2.40164 -2.93412
199 8.04535 -3.0509 0.401265
200 1.95099 2.72395 1.67452
201 4.85481 2.59372 3.45758
202 -1.22681 1.18687 -4.21113
203 -2.67663 -2.3974 -2.8985
204 0.416798 -6.85538 6.19298
205 -0.914824 2.38765 -0.398974
206 1.96009 -2.12538 -1.29846
207 -0.224586 -2.71016 1.3965
208 -3.18811 -2.23502 1.6938
209 0.319407 -2.81378 -2.41244
210 1.03397 4.0443 1.70107
211 4.52848 3.28995 1.55081
212 -4.53562 0.654034 5.37213
213 -0.154834 -2.58448 -5.41676
214 5.73079 3.76135 0.6606
215 -1.14326 3.92805 3.3268
216 -4.52191 2.65279 -0.531526
217 -4.67364 -4.05908 -0.997182
218 -2.46426 2.56274 -6.00506
219 3.40251 1.09033 -5.65363
220 -1.15734 -5.03499 -1.74183
221 6.11526 -3.52353 -5.06344
222 2.73134 -2.13678 -1.89279
223 0.806413 0.706084 0.938629
224 -3.34247 -0.637348 4.14635
225 0.959698 -0.866973 -3.93584
226 3.52345 2.6642 -3.35694
227 1.62293 3.36551 -0.974518
228 0.0370573 5.02919 3.99124
229 1.35487 8.03421 -0.572944
230 -1.85194 -2.61128 -3.40916
231 0.321286 -3.39113 -3.05472
232 0.207556 7.60433 2.34653
233 0.287195 1.36048 4.68634
234 -2.13238 -0.728646 1.85689
235 -2.95062 0.408522 4.12669
236 -3.89159 -2.30106 -6.77736
237 2.91271 -2.10816 -2.4277
238 0.00518756 -4.23754 -2.05591
239 -1.92386 -1.52725 0.672709
240 1.22567 -2.26602 2.34417
241 -4.88601 1.9295 -4.31452
242 -0.725877 2.73869 0.706431
243 2.99891 -2.22988 -1.23907
244 3.87228 -1.62143 1.53215
245 -7.41286 0.605407 -3.7207
246 -0.363757 3.87103 -0.927645
247 4.1921 0.0474562 -7.39809
248 -2.84025 -0.129472 -0.987102
249 3.42278 1.82043 4.32318
250 -0.218593 4.45891 2.1774
251 4.90006 -0.129289 0.678526
252 -3.80809 -4.93204 -1.29233
253 -1.00849 -5.53004 -1.79119
254 -2.32922 0.662878 -5.47527
255 -4.0818 5.14319 3.16207
256 -2.09446 0.822812 5.8053
257 -9.84596 1.40474 4.304
258 -3.15215 0.268873 1.02006
259 1.77777 3.37837 3.98942
260 -2.88615 4.08611 -5.54029
261 -2.02572 7.10308 -2.11164
262 -4.1054 -3.002 4.37575
263 2.84746 -9.19599 -5.17109
264 1.05954 7.13015 5.48143
265 -0.89664 -2.18898 -0.267722
266 0.797467 2.91092 0.842925
267 0.217284 1.27229 -1.74501
268 3.59002 -1.38663 -0.74874
269 -3.06844 -2.30273 2.76514
270 3.71498 -3.58022 -0.857054
271 -2.0114 1.22707 -2.72337
272 4.70646 -2.45643 -1.26569
273 3.39222 0.923617 3.7542
274 -0.253917 1.80617 -3.33107
275 -3.41191 -3.58306 -1.94404
276 2.28522 -0.0292629 0.805511
277 2.4163 -1.2675 1.7863
278 -5.03146 -2.03501 1.46419
279 0.160104 -5.60703 -4.58338
280 -4.14929 -1.82461 1.45848
281 -1.45336 2.22463 -1.4035
282 -1.24536 -1.14907 -3.67468
283 1.2712 0.971739 -6.76663
284 -5.35898 -6.35306 2.32556
285 -2.37359 -0.93539 -1.37948
286 -0.275684 -3.88019 1.54454
287 2.4208 4.97598 -1.03512
288 -4.03575 -3.21446 -1.91275
289 1.01354 -2.9764 1.28723
290 -2.66857 -3.44616 4.13009
291 -0.585655 3.33825 3.46182
292 -1.70522 2.24943 0.207957
293 -5.43739 -4.7523 5.1918
294 2.93505 2.12801 1.4361
295 -0.86553 -2.19288 5.75343
296 3.45819 0.21331 -1.26332
297 -0.0994722 -3.94437 -0.567026
298 -2.62791 7.19141 4.76425
299 -0.974828 0.829574 3.36785
300 0.86277 -0.267953 -7.26855
301 -1.58981 2.18932 9.63169
302 -0.719009 -3.92648 -3.19098
303 3.18778 1.44366 -0.4173
304 -6.85223 2.74076 2.72627
305 -0.229497 2.05812 3.09585
306 -0.424417 2.74223 -0.995163
307 -0.900768 1.16035 3.37875
308 3.11782 -0.471086 3.50033
309 1.67835 -4.90175 5.00277
310 -4.77218 2.63748 2.51138
311 2.03223 -3.56121 -1.474
312 2.02024 -0.291904 -0.361464
313 1.54409 1.56818 8.64301
314 1.55556 2.28464 -0.917192
315 -6.1167 -4.72701 -6.40545
316 -1.54504 -1.93401 -3.32937
317 0.267877 -4.39409 -4.84333
318 -1.29456 3.82766 -8.59905
319 2.5902 -9.68271 -5.886
320 -3.18554 -5.87565 0.389581
321 5.36031 -1.74169 0.694413
322 -3.93845 -1.27398 0.963591
323 3.35864 0.812478 -1.85191
324 1.45487 -1.38224 -3.31958
325 -0.717894 -5.33889 -0.0752878
326 -1.6467 2.61632 0.299253
327 -0.0365451 6.13284 5.50808
328 -5.32701 3.95172 -4.0596
329 1.11483 -4.61996 3.35577
330 0.969973 3.55507 -0.631336
331 7.52622 2.18087 6.26692
332 -0.766495 1.00559 -4.92506
333 -0.737363 -1.71507 -2.90082
334 -1.2408 -2.14218 -2.12688
335 -1.19468 2.7763 -0.535746
336 1.77409 2.28608 -0.849385
337 0.967647 1.50901 -3.42158
338 5.51739 -2.88398 2.84538
339 -2.26947 -1.78296 -3.25016
340 -1.94658 -1.48326 -2.52335
341 0.157292 3.1902 0.328496
342 0.51433 -1.21353 -6.04911
343 -2.48472 -1.49168 4.01938
344 2.53703 -1.27342 -0.752439
345 -2.58383 3.0673 -3.64528
346 3.10004 -2.35513 0.166894
347 5.88028 -1.69794 -8.35111
348 1.02768 -1.85771 0.764772
349 1.11061 -0.454732 0.63608
350 3.14914 1.32703 2.03191
351 4.90574 1.98207 6.70505
352 -7.60316 1.72303 0.675478
353 -2.46819 -3.1393 -4.57564
354 -1.57984 -1.1343 4.10283
355 -2.80721 4.09916 1.63578
356 2.53002 1.61264 2.98629
357 -2.89142 2.84634 4.27936
358 -0.666364 -3.13636 -1.04635
359 0.582931 4.44338 2.70069
360 -1.64104 -3.01941 -1.70995
361 2.65562 -2.93281 -3.96816
362 -1.76714 3.8029 0.449409
363 6.83957 4.73199 -1.19964
364 4.0213 2.40548 -1.44477
365 0.808116 -0.808034 -0.565694
366 1.38986 -1.41826 4.83636
367 3.49625 -0.124224 -5.11217
368 3.97647 -2.21186 1.56462
369 1.56839 -0.571191 5.44761
370 -6.10808 -4.15136 4.77922
371 2.30097 -2.55097 -1.37429
372 -0.315711 1.88136 -7.11607
373 -0.941656 1.08406 -4.71697
374 -0.623291 -1.99662 1.22791
375 -1.15108 0.385778 -2.01428
376 -1.27283 2.20168 -2.84785
377 -1.99237 4.15647 -1.99035
378 3.36033 -2.83659 -10.9778
379 2.45594 -4.98901 0.63425
380 -2.59146 -1.6851 -2.92455
381 -4.98093 1.57845 2.20911
382 0.621917 0.614864 5.48181
383 -2.75613 0.126998 -5.95622
384 -0.526106 2.95968 -2.70237
385 -3.62475 3.65687 0.214086
386 0.172951 0.84192 0.925594
387 -0.278402 6.11587 1.0616
388 1.68785 1.35069 -4.35104
389 -8.42755 -1.44935 3.15869
390 2.30444 0.347974 0.209339
391 -0.104263 0.222559 -1.15222
392 -0.785359 1.15833 2.35411
393 -3.89599 -1.8633 1.75042
394 5.10299 0.648414 -0.99066
395 1.73431 2.2724 -4.33856
396 0.817941 3.50069 6.15075
397 -1.74294 -0.953555 -3.29647
398 1.55286 -4.59576 -8.65701
399 2.38855 -2.69531 4.33918
400 -0.564036 4.73098 2.12087
401 -1.01366 -0.0340269 -1.77116
402 4.1329 -2.80342 -5.37111
403 -2.90535 -10.0473 -6.50229
404 2.87886 -1.07634 3.67409
405 2.1634 1.92168 2.43982
406 -1.422 0.561401 0.408824
407 2.01874 -6.62812 -3.64983
408 0.695493 -1.64707 4.24948
409 5.18907 -3.21656 0.0802174
410 -2.84517 3.86277 0.754301
411 0.109971 -8.34408 2.23633
412 0.280463 -1.46524 0.407625
413 -3.43477 -2.90905 4.00538
414 -1.08088 0.978835 -1.50352
415 -1.3829 0.0759703 -1.0849
416 -2.87619 2.20053 -0.210884
417 -1.70663 -0.151217 -1.37897
418 -1.58963 0.226367 4.00827
419 -2.77426 -2.59765 3.83873
420 1.01993 -5.25054 -1.55415
421 1.80805 -2.80342 -2.55343
422 -0.764054 -3.02765 -2.76939
423 -0.899063 -5.29515 -5.18873
424 4.49007 1.02305 2.65121
425 4.59536 1.20582 -3.75968
426 -2.96056 -2.636 -0.29766
427 7.91119 4.79295 3.14438
428 2.36196 1.01158 9.10941
429 5.07753 -1.98499 0.767461
430 -2.20148 0.401471 1.23233
431 -0.710086 0.788974 0.611162
432 2.41916 0.619118 0.690433
433 -0.0304697 4.36694 0.762295
434 -1.6271 -3.88035 0.721123
435 6.51442 -2.76654 5.72907
436 -4.62435 -1.55821 -8.45053
437 -7.12377 2.42989 6.0146
438 2.93193 3.40026 -6.96136
439 -4.65236 -4.9763 2.71821
440 -1.46952 -3.25204 6.62408
441 -1.74489 -4.25157 0.00884587
442 -6.61249 0.050829 -4.56803
443 -4.64202 3.18965 -1.92023
444 -9.23234 0.322563 4.76444
445 -0.951609 -0.671167 1.91691
446 3.05168 1.42844 3.48535
447 8.17032 7.31182 -0.455714
448 0.643277 -1.2644 -1.06927
449 -0.0414294 -3.82886 7.88362
450 1.1484 0.953606 -4.86313
451 -2.63113 -4.15496 0.552501
452 1.51595 -3.71947 3.74657
453 1.60831 -0.287698 2.33512
454 -0.0158872 1.72945 3.73198
455 2.68833 -4.17833 -2.85164
456 -0.927391 -0.476784 0.730669
457 -0.803836 3.78035 -4.21894
458 0.517912 3.59654 1.52556
459 4.08699 2.21941 1.90947
460 -2.83087 4.66192 -1.48634
461 -2.42875 1.92394 -1.11177
462 -7.51795 -0.0402937 -3.8091
463 -5.4762 4.88206 -4.19629
464 -0.616308 -5.90858 2.55839
465 -5.47544 -1.96259 2.79159
466 3.2476 -2.02763 -3.57351
467 5.98607 -2.80811 -0.545877
468 1.73432 -0.883498 -3.54343
469 -5.18175 0.198973 -3.58614
470 2.31334 1.25062 1.82519
471 -3.54299 1.27663 3.62046
472 1.52115 0.32357 -0.484999
473 2.26161 -2.4673 0.385466
474 -1.64831 3.54183 -1.17142
475 2.94103 1.17495 1.31749
476 -3.80463 4.0458 -4.41266
477 -3.88672 0.263708 1.41967
478 -0.841291 -4.44996 -3.72309
479 2.54222 0.524113 7.23313
480 -2.60267 -4.13505 -3.66523
481 -5.19004 4.52623 3.46472
482 -3.14735 -2.79959 -1.07558
483 -1.81783 -0.771854 5.7645
484 6.22507 -2.4704 -2.56797
485 3.85307 -0.756348 -0.769743
486 4.83009 -0.824643 0.102206
487 3.3141 -0.0626042 -2.51004
488 -0.719707 4.49369 -0.568702
489 -1.90629 1.97595 -2.00769
490 0.735571 -1.13503 -0.279659
491 -3.27679 -0.920683 -2.20499
492 -1.29818 0.203871 1.09489
493 -3.48563 -0.408554 -0.377587
494 0.00792372 -0.959338 -3.25963
495 3.99609 0.865949 9.71021
496 -2.74329 4.50084 -0.293416
497 5.49766 -3.60202 -0.622008
498 6.17597 -2.94209 -1.78586
499 1.98264 -2.4992 -1.1296
500 -0.787186 -4.40456 -1.00647
501 1.71692 3.75371 6.97225
502 2.32669 -0.358452 -2.48303
503 0.649914 0.783978 -2.00981
504 -2.4794 -1.12584 1.45037
505 2.01793 0.31205 0.872578
506 1.11258 0.580628 -0.882493
507 -0.606608 4.15557 -2.18216
508 0.485335 -2.98001 4.30136
509 2.49867 0.531839 -1.47227
510 4.14295 6.32213 3.82593
511 -3.71447 -0.854616 -5.29868
512 0.13644 -0.514731 -1.91353
513 -3.97157 3.63662 0.718181
514 3.72238 3.46494 -3.36447
515 -3.69494 4.36319 -5.25296
516 4.06859 -4.77256 -5.32692
517 -2.31102 0.476607 -0.087603
518 -2.94434 -0.856214 -1.26614
519 3.14254 0.153453 2.19819
520 8.49758 -0.0572484 -1.31357
521 1.90857 -8.85138 -6.64554
522 4.29131 2.83833 0.51977
523 6.57701 0.209574 -3.3132
524 -2.34881 4.19597 -1.5053
525 -2.16999 -3.96213 0.424453
526 -0.879898 4.88512 -3.76651
527 -1.74392 -1.5698 3.05413
528 3.11256 -2.15067 0.432506
529 4.13934 2.4122 3.33377
530 3.49451 -0.537902 -1.52862
531 4.37562 2.86957 3.18804
532 1.73409 -1.59463 -4.5396
533 1.4156 -1.90864 3.9732
534 5.74438 -0.747539 -0.264071
535 -3.95398 3.31145 2.74639
536 3.84085 1.50854 -2.85408
537 -3.24387 1.44887 -3.39243
538 8.03018 1.99592 5.67443
539 2.85839 6.11396 0.344232
540 -0.0777804 0.615441 3.04191
541 -2.09631 -1.44426 1.32073
542 -1.35006 -0.13366 2.59021
543 -1.24197 3.94126 -1.18511
544 -0.406369 -4.10837 -0.873896
545 3.39236 -1.59503 2.84623
546 -4.04849 2.81261 -6.07842
547 -4.04009 4.02265 5.77831
548 -8.69593 -1.70606 0.822622
549 5.95589 5.14085 -6.33392
550 3.4758 -1.4873 5.67991
551 1.82253 2.08614 2.01279
552 -0.156278 -2.08807 5.46777
553 4.49042 2.96122 1.36851
554 6.67575 -5.30088 -5.76938
555 -4.50492 -1.43594 3.23364
556 -2.20573 1.38256 2.25716
557 -0.308657 -3.00881 -6.52263
558 1.17409 -0.236749 5.53392
559 2.86469 4.54502 -0.0614479
560 5.15796 -0.243719 -3.10888
561 0.00459168 4.56351 -2.67277
562 -2.84057 -8.08564 5.9398
563 0.831113 -0.155468 -3.63674
564 -0.348206 -5.44512 0.405779
565 -4.62468 -3.42143 3.24269
566 5.50153 2.04052 2.44803
567 -0.20743 4.80189 0.63374
568 -2.37586 1.71999 1.30782
569 -3.28122 -1.31088 1.95913
570 -1.04015 -0.93464 -3.5053
571 -1.0632 0.751424 -3.64104
572 -0.31073 -0.883947 -1.65853
573 2.7529 3.79868 -1.13701
574 1.58347 -1.88326 0.573981
575 1.63969 -5.93098 -0.7262
576 -1.80069 3.32778 4.98483
577 5.80691 -0.850489 3.18387
578 3.71289 -2.25779 -1.77082
579 1.22578 -2.5873 0.8064
580 -5.04788 -7.81395 3.01754
581 -3.32689 -0.916222 -9.18042
582 -2.9541 3.66133 -0.44527
583 6.7315 1.36539 3.18047
584 -0.948398 -2.94579 4.52707
585 -0.518553 -5.52918 6.61117
586 -1.65556 0.409277 -4.8889
587 1.36558 0.514517 4.48785
588 3.53619 -3.54324 3.38994
589 1.71979 -1.32115 -1.78585
590 3.27636 0.952763 3.19316
591 4.47879 -2.38455 2.56132
592 -0.334971 -3.98409 -1.93615
593 3.79622 -6.10234 -0.0243798
594 -0.287943 1.91491 4.18735
595 -1.2901 -0.184277 2.34394
596 -2.12431 -0.856012 -2.58293
597 -1.65912 0.755606 3.21851
598 -2.42403 0.825576 -2.72422
599 3.23352 -1.03619 1.16326
600 -0.108117 1.67715 1.75597
601 1.53516 1.1294 0.780202
602 -0.959827 -0.956588 3.83553
603 0.749296 0.798495 4.29646
604 2.20754 0.999878 3.3065
605 3.73026 1.7522 -4.46612
606 -7.64505 -4.9155 0.789633
607 -5.47293 -2.5063 -2.06413
608 -1.38313 -3.86057 2.06824
609 -1.61146 3.93409 2.49324
610 1.28142 -1.05976 0.287737
611 -0.329387 -0.143022 -1.62285
612 -0.480009 -2.60692 -1.4935
613 -1.0016 -3.3503 1.50829
614 -1.21798 0.859339 -3.71767
615 -3.99549 1.66874 4.18118
616 -3.03137 0.771158 -1.45149
617 -1.15073 4.39675 -4.13884
618 -3.04554 -0.562594 -0.339225
619 6.04948 -2.61979 -1.98497
620 1.69689 -0.0543701 -0.69582
621 -2.08455 -4.82257 -6.29488
622 -0.946127 -8.0611 4.44083
623 -0.371817 -1.35097 4.66399
624 3.36958 0.56819 -0.660101
625 -5.9718 -1.15923 1.32538
626 -3.5119 -2.88248 -1.88519
627 2.28327 1.32223 2.49477
628 1.11917 -2.31168 3.10599
629 3.1141 0.296402 -2.55387
630 0.208035 -3.7067 3.88262
631 -2.06114 -3.16386 -0.82219
632 -4.51187 3.09625 -1.39274
633 1.01505 -0.0537434 -2.4126
634 2.7128 -2.12461 2.14655
635 -4.4627 0.37312 -1.82845
636 -2.45043 -1.01046 -2.40365
637 5.30805 -1.60284 -5.68759
638 1.97837 0.851692 -4.35461
639 3.99206 -0.28493 -4.41791
640 0.024475 4.20258 0.801128
641 -6.35198 0.530932 -2.44789
642 -2.50016 3.7558 -0.715867
643 -1.46767 -2.81362 0.521632
644 0.237817 0.806646 1.17617
645 0.680917 -0.342278 1.29436
646 3.10922 4.12873 -5.35843
647 1.03043 3.38688 -2.1497
648 -1.11527 -1.39381 7.90994
649 -7.76721 0.128725 -7.51268
650 5.8563 1.69154 1.61509
651 -4.79987 -1.50781 3.7398
652 1.48638 -1.03165 -3.20758
653 0.710969 -0.364011 -2.38329
654 0.108099 -2.92362 0.0228793
655 -5.73083 -0.148734 -2.96046
656 0.279376 -5.07596 2.8003
657 -4.88432 -4.73418 2.51441
658 1.88618 3.35998 0.804459
659 -6.91921 -2.21362 0.783708
660 2.91857 1.86621 5.31437
661 2.57332 -3.88774 -7.01233
662 1.84603 -4.11819 4.69719
663 2.07105 -8.00447 -7.54803
664 -2.40166 -2.83557 1.56671
665 2.28758 3.6168 -1.45641
666 3.60216 -2.10213 6.78213
667 -0.448927 -3.63407 -6.29683
668 0.778867 -2.27813 -3.86401
669 4.35344 -0.651068 -1.52309
670 5.81191 -1.75021 1.35316
671 -3.84842 -3.51569 4.93
672 -2.40665 -1.92459 3.44228
673 -3.63178 4.23879 -4.80779
674 -3.90534 -7.34802 -3.9308
675 -2.89424 3.26321 1.9663
676 -1.94561 -7.49068 -1.80283
677 -1.82754 -2.99485 2.32478
678 -3.69306 4.1636 4.11089
679 -0.760663 -0.751442 0.877166
680 0.695024 2.60339 -1.56299
681 -0.820711 -5.11998 -0.0448525
682 4.88461 -0.147647 3.94337
683 -2.28921 -0.950018 4.86116
684 -2.23124 0.848862 2.64261
685 -4.34195 6.28478 1.89612
686 -1.03418 2.9548 7.50037
687 0.628532 0.237608 3.25794
688 0.195332 7.22711 -2.38378
689 0.966301 -1.79753 -4.66638
690 -1.72212 -6.56121 -1.25791
691 2.13194 7.33157 4.01765
692 -3.66898 3.19416 0.727166
693 -1.67196 0.578702 0.66667
694 -3.013 4.64231 -3.55107
695 2.40578 0.0514002 5.01714
696 0.75906 -0.730737 -2.58792
697 2.92706 3.03686 -2.56045
698 5.05305 -3.17765 -2.38427
699 4.90237 -1.25041 3.90013
700 -1.78265 -2.89647 2.91999
701 1.04747 -1.60702 -0.899014
702 -5.59211 0.835646 3.24098
703 3.16435 -0.697812 -0.955224
704 -0.575579 -2.53148 -7.01184
705 1.55292 -4.87919 -0.949555
706 3.18372 -0.36504 3.56578
707 -1.33166 1.26255 5.54921
708 -1.21602 0.535707 2.56918
709 1.97561 3.40046 1.33703
710 -2.45867 -0.538814 4.90331
711 4.02378 -0.720265 4.1497
712 -2.90931 0.331994 3.40399
713 1.96052 1.25419 -1.63937
714 6.20236 -0.0767882 -1.44194
715 4.69421 2.50728 -2.00088
716 -2.22527 -6.53618 2.72781
717 0.0525171 -0.930298 -0.800553
718 -2.28991 -6.40988 0.00188783
719 2.65946 -1.96498 -1.88737
720 0.576477 0.470704 2.21299
721 0.844256 -2.19493 -0.127439
722 2.05643 -1.72279 -3.74573
723 5.38657 -5.16002 3.64929
724 2.3006 0.95774 5.19453
725 -2.61483 -2.86822 -0.755542
726 0.93183 0.862338 1.21552
727 -2.91235 -1.07618 5.49799
728 3.07383 1.68269 -3.95955
729 3.76925 4.71468 1.29698
730 4.36663 -7.2609 0.751588
731 -0.312839 -1.08977 5.81534
732 0.600465 4.37534 1.5668
733 2.47333 2.5448 1.66797
734 5.01212 1.30976 -0.328854
735 -2.0684 -0.85778 5.38097
736 0.753594 2.45116 0.927787
737 -2.11438 -2.06694 2.48074
738 1.95398 4.23885 -4.8657
739 -0.0842766 -3.28392 2.88585
740 -3.07063 2.63922 0.0831634
741 0.541439 -0.42455 2.92729
742 3.1289 2.06182 4.22487
743 -2.76242 0.927827 0.581821
744 6.98316 -3.93872 1.04747
745 1.63343 1.46531 7.58795
746 -2.18353 1.6259 -0.130268
747 -1.28188 -0.0439475 -1.55797
748 1.68274 3.70545 -6.75952
749 -1.99201 0.560859 -0.700998
750 5.53738 1.00488 1.03829
751 -4.82918 1.50818 -1.74339
752 -2.70907 -1.28492 3.39726
753 -1.24905 1.23716 1.45951
754 -0.873857 1.09398 0.360154
755 -4.31821 -4.39513 4.50175
756 -4.04052 -1.65145 7.73884
757 3.60685 1.35508 -0.80984
758 2.61084 3.37275 -4.28093
759 -1.72443 1.44885 0.334607
760 0.719044 -3.63679 1.71216
761 -1.40937 -1.90411 0.110269
762 0.0931437 4.88852 -1.25826
763 4.53949 3.27255 1.91751
764 3.04548 -1.11442 -3.86862
765 -0.425962 4.15877 1.10601
766 -7.74695 2.7456 -2.63302
767 -3.22722 -0.577369 -2.17761
768 -5.74044 2.82416 1.8412
769 -2.93121 1.28844 2.05969
770 0.568833 -0.614929 -1.26339
771 -1.39498 -2.78653 2.23551
772 0.203709 -2.5334 -0.563455
773 1.84168 2.51263 4.33419
774 -0.487764 1.74049 -2.8167
775 0.415395 1.56005 1.07599
776 0.677794 1.05976 4.17444
777 -2.18636 -2.49728 0.539447
778 -3.96491 1.71188 -5.10627
779 3.81905 1.62302 4.22931
780 2.1496 -1.36787 1.16951
781 -2.11371 -3.04943 -1.2895
782 -4.24948 2.39439 -1.25369
783 -1.17463 4.51575 -8.20533
784 -4.32996 3.62805 6.60234
785 4.30372 -1.18885 -0.189188
786 -8.55412 2.6559 4.06116
787 -0.971521 0.457428 7.0251
788 -6.55564 0.412252 -0.551292
789 3.45515 -1.38422 0.808766
790 0.113463 -5.65494 -7.7911
791 4.02164 0.630469 -2.32781
792 -1.07823 -2.68748 1.55187
793 6.73657 -1.72742 -2.17412
794 2.80571 0.160948 1.85379
795 3.29558 -1.33229 2.78867
796 -1.00938 0.134899 2.11913
797 -8.86751 -4.00175 -2.79975
798 0.646903 -5.53268 3.21436
799 -5.1139 1.44657 -0.814839
800 1.94569 -1.35796 2.16665
801 -3.97097 -3.51645 -4.27348
802 -2.28099 0.268947 1.57823
803 -3.84291 4.3237 1.97817
804 -0.805452 1.70579 3.22259
805 -5.5452 0.556696 -1.18885
806 -2.11282 -0.679832 6.96319
807 -1.7521 7.07675 -5.92759
808 -1.84512 -0.288763 1.25768
809 -2.5576 -6.77242 3.0906
810 2.66946 4.56122 -3.49874
811 3.29935 3.62824 -1.34391
812 -1.87616 0.741085 -2.65008
813 3.21179 0.975249 -0.952752
814 2.94094 2.45095 0.494259
815 1.89537 -1.6151 7.51519
816 3.19318 -4.3516 -0.73919
817 -2.80896 -5.8312 -0.517921
818 2.32795 2.90423 -2.42279
819 0.43097 2.16792 -1.30024
820 -0.119511 -4.07 0.0737075
821 -3.62582 2.29892 -4.1898
822 -2.60955 -3.5166 -4.88321
823 0.423962 -1.54019 3.24058
824 2.6365 0.673612 5.7596
825 0.677832 1.50704 5.86728
826 0.134258 3.344 2.09913
827 -3.65242 6.2566 3.22519
828 3.54877 2.96765 2.56343
829 0.906491 -1.60374 3.66614
830 0.85474 -8.54829 -0.256305
831 -7.04889 -4.87717 -4.62989
832 7.71643 -3.16435 2.68727
833 -2.34368 9.49409 1.39279
834 0.393035 -1.80521 -0.496129
835 2.64967 -3.18163 3.27268
836 1.37317 1.95845 -3.83215
837 2.56425 2.99124 -1.11798
838 4.5347 -0.899858 -0.444888
839 -2.87995 2.4117 4.32101
840 -0.696975 -0.682927 -2.2617
841 -0.766404 -0.985075 -3.13836
842 -3.78907 -5.02852 -1.62261
843 2.10764 3.43627 -3.39653
844 -0.0199772 2.82892 -4.54004
845 0.0880955 -7.62792 -0.863222
846 6.37545 4.02254 3.42536
847 2.51962 0.87896 -0.453583
848 1.92736 1.40571 -1.74778
849 -6.70988 0.749604 3.20138
850 3.226 -0.811169 -4.00473
851 -1.08652 2.5299 3.86231
852 -6.71246 -1.85402 -2.43743
853 1.23122 -1.90828 7.18663
854 1.36153 -4.98646 1.57654
855 -2.23314 4.1021 4.97324
856 -2.49833 -1.19723 -0.937406
857 1.55838 -2.82921 1.27418
858 -3.2098 0.931297 1.80624
859 5.09117 -2.71453 -1.67707
860 4.41382 -1.73733 1.62395
861 -3.06647 -5.94264 -0.968135
862 3.16949 1.79597 1.92337
863 -3.3448 -1.32513 2.5366
864 4.94329 1.86569 -0.176819
865 -0.978906 2.95969 -2.69645
866 -4.18866 -5.40317 0.0941626
867 -0.533965 0.882059 -11.5289
868 -0.176731 -1.82515 1.59666
869 3.24768 2.50821 3.70164
870 -3.00263 -3.75167 1.98196
871 -1.40095 -3.55952 0.525701
872 -3.68466 1.5167 2.32295
873 -0.215049 2.57459 0.133637
874 1.21579 -3.22543 2.13252
875 2.24647 2.34203 -6.83312
876 3.20753 -0.660359 3.68676
877 -1.79731 -3.77308 4.28015
878 2.54369 -1.93113 4.14392
879 2.28006 1.46177 1.04092
880 -0.842529 -1.0425 2.27421
881 5.87431 0.736464 -4.19329
882 0.661217 5.74191 -0.0140324
883 0.836625 -4.49451 -7.01808
884 4.14784 -4.29669 -2.82799
885 -2.77055 1.20873 0.878883
886 1.48312 1.15318 -4.69903
887 3.84908 1.57164 -0.428867
888 2.98917 -5.25596 -5.73023
889 5.90249 1.75187 -0.186565
890 1.353 4.60059 -1.13148
891 1.42629 -1.82174 7.19429
892 2.44655 -3.10723 -1.39996
893 -1.59535 3.79721 1.23382
894 -1.20224 -5.67188 -3.93554
895 5.90722 -5.87449 -3.23364
896 3.98451 -1.69836 1.47641
897 -6.3515 -3.459 -5.92392
898 3.77508 -0.815155 5.82678
899 6.39432 -0.848965 3.11143
900 3.42068 -3.31592 -5.50849
901 3.09425 -1.4416 4.5359
902 1.87484 -0.965939 2.94065
903 1.52734 0.7823 -1.52343
904 -3.98115 3.58308 -4.80912
905 4.43938 3.36758 -0.104649
906 -0.109471 -1.47727 -1.90702
907 0.721126 2.05085 0.664619
908 -7.31502 0.289888 2.65133
909 1.7914 -0.743822 0.59317
910 2.03011 -1.94583 -6.90523
911 -1.23625 -2.84607 0.00352566
912 -2.36749 8.17556 4.46346
913 -2.80349 2.05396 -1.25312
914 1.64416 7.27017 3.71304
915 3.45622 -1.12135 1.28018
916 1.4366 3.80196 -3.92791
917 -2.04065 3.92351 -8.47268
918 6.28512 -1.13063 -2.60861
919 3.41488 -0.740226 6.67427
920 -1.91586 0.507257 -0.999925
921 0.750937 -2.16949 -5.27195
922 -2.32235 2.46916 5.67606
923 2.28398 -1.69943 2.53915
924 4.80941 7.61839 2.46952
925 8.90286 -6.55299 3.10895
926 -2.86308 -1.87291 -0.430057
927 1.71423 -1.48787 -0.794631
928 -4.76527 -7.37271 4.16607
929 0.109885 3.87559 -1.49072
930 4.47172 3.56749 -4.17653
931 -4.06719 -1.21348 -4.32316
932 2.56686 0.898479 -1.53514
933 -3.18456 -2.8219 5.71014
934 0.0380903 0.655923 -3.80373
935 3.71904 -3.96769 1.80221
936 4.92284 -1.02426 -0.0119146
937 1.26137 1.90644 -1.02633
938 -3.01485 1.26165 -3.14444
939 0.217433 -2.35874 2.86971
940 -3.78692 -4.56694 -3.26702
941 -3.90406 2.04597 0.669551
942 -0.8095 -5.57599 1.80857
943 5.65375 -3.30506 0.767792
944 -1.5429 3.14645 0.0490045
945 -3.80775 1.64528 2.17125
946 -2.40409 3.51419 3.80701
947 -1.7787 -0.992278 -1.36757
948 0.546576 3.93486 -3.3894
949 4.55703 0.425551 1.13028
950 0.526737 -0.220915 -2.4514
951 1.06932 -3.22896 -1.31124
952 0.605953 2.21623 -0.898474
953 -3.26103 1.80384 2.74114
954 7.98303 -1.18789 -0.64212
955 2.7407 0.3314 2.26983
956 3.68679 5.5185 -1.29487
957 -1.14112 2.01369 -0.705643
958 2.25088 3.14044 -1.70527
959 -2.10489 1.05651 2.02447
960 -1.50082 -2.91982 -4.58051
961 1.29773 0.386858 7.07485
962 5.73887 -1.49511 1.96116
963 -0.168718 4.74157 0.681203
964 6.10054 -4.83729 3.22237
965 -0.819925 6.38351 2.52171
966 -4.39776 1.79557 5.04495
967 4.89609 1.07473 2.15698
968 -1.3017 2.48128 8.32816
969 -1.62477 0.0140241 0.0715678
970 3.68397 4.31798 3.53184
971 -4.47245 -1.88046 4.68853
972 1.87934 1.6362 -0.352715
973 0.648695 -1.98646 6.62395
974 -4.64319 -6.69132 1.09188
975 0.708064 0.761774 -0.725687
976 4.1058 1.98463 -0.140828
977 0.112345 0.923653 4.24794
978 3.14221 0.417733 -7.80343
979 -2.09318 -1.61436 4.35757
980 -2.23998 1.86522 -4.31021
981 0.0974232 4.21723 -0.619106
982 1.85383 -0.0226635 -0.107596
983 -1.1752 3.41999 -2.51459
984 2.72727 -0.435855 -1.69172
985 -1.40191 -2.29031 2.15426
986 0.0750718 -2.26724 -0.705134
987 1.18839 2.87944 2.587
988 1.85006 1.32732 -1.72152
989 0.382023 0.218849 1.73643
990 -1.63788 0.730974 -5.37799
991 -2.06651 -4.86829 -2.97756
992 0.027914 5.3046 1.44023
993 -0.132481 -1.54581 5.74821
994 5.91849 2.87771 -3.54224
995 -8.30014 -0.956006 -0.943417
996 5.52274 -2.7316 5.01302
997 -0.238763 4.89145 -0.431899
998 -0.0240888 4.45257 0.715833