ITEM: TIMESTEP
0
ITEM: NUMBER OF ATOMS
20000
ITEM: BOX BOUNDS pp pp pp
0.0000000000000000e+00 2.0000000000000000e+01
0.0000000000000000e+00 2.0000000000000000e+01
0.0000000000000000e+00 2.0000000000000000e+01
ITEM: ATOMS id vx vy vz
1 -1.76879 2.82077 2.63855
2 -4.62695 0.0650042 4.09062
3 -1.58415 -0.511344 0.612949
4 0.282015 -2.88451 0.694482
5 0.317858 -4.67632 0.301344
6 -0.332786 -0.494113 -1.13326
7 0.300027 -0.805691 1.15628
8 -4.26693 -1.94256 0.882991
9 -0.657415 1.38179 -0.102013
10 3.13498 0.904903 -0.900284
11 2.53521 0.321493 1.45055
12 2.56178 0.907048 3.38765
13 -3.35328 0.586486 1.6209
14 -1.36334 -2.14006 -0.521844
15 -1.27817 -1.16279 -0.668538
16 0.728103 -1.36182 1.21732
17 0.426421 1.40439 -4.2185
18 1.50139 1.99806 3.87316
19 -1.93511 1.90236 2.71297
20 -1.4952 0.640294 -0.00124092
21 0.282088 2.50891 3.64007
22 -2.15228 -1.364 -2.10256
23 2.76969 -0.562212 -1.68638
24 -2.62426 3.11604 -0.399371
25 2.66732 -0.0553001 -0.0516011
26 -1.03031 -2.86176 -3.64627
27 1.00861 -1.16824 -0.345866
28 -2.57133 0.632482 0.573096
29 5.90751 4.95362 -0.11317
30 -3.03674 2.85006 5.35481
31 -0.397469 1.53581 -0.841508
32 -0.665013 4.88937 -0.687408
33 -5.16467 -3.23464 2.93422
34 -3.37153 3.19179 2.5801
35 2.06729 -2.91311 -4.74823
36 -1.79306 3.47407 -0.878159
37 1.31119 -1.42435 2.70737
38 4.71792 -0.653038 0.652386
39 -4.53281 -0.270189 -1.63629
40 1.42717 -1.22611 1.43223
41 -1.6292 -1.05781 0.129877
42 1.01648 -0.867329 -0.12486
43 2.59633 1.885 -0.876333
44 0.457306 0.12064 4.99364
45 0.0862774 -0.134801 -0.537397
46 0.117981 3.74869 -0.336736
47 6.23882 2.97103 6.20327
48 4.42407 4.0445 1.79513
49 -0.515072 -2.51038 -1.13105
50 3.84639 3.06999 -0.840144
51 0.425366 1.12451 2.61979
52 1.24928 1.84163 -2.19417
53 -0.26631 2.48767 0.701026
54 2.16116 -0.683814 3.36085
55 -3.94219 -0.61205 -0.694279
56 -3.44728 3.4939 -0.909675
57 -3.37604 2.70592 0.816142
58 5.36834 -0.565801 -0.0972923
59 2.2474 -6.22449 -0.759443
60 2.96218 4.68651 2.04953
61 -0.815833 2.46647 -0.256976
62 -3.03986 2.02814 -4.42015
63 -0.0566844 -0.148226 0.731571
64 1.50569 0.317152 -1.50249
65 -5.05352 2.88942 0.00403813
66 -0.917427 -2.71556 -3.22564
67 -0.0864671 4.11648 1.74493
68 1.7224 1.20507 2.37902
69 2.01734 2.10804 0.839103
70 -0.807157 1.65215 1.41199
71 -0.736332 -1.08689 -1.54615
72 6.67747 4.58034 0.957486
73 -5.08741 1.40925 0.111631
74 -0.149691 0.444044 1.19692
75 -0.151879 -0.303653 0.409935
76 -0.815665 -0.450948 -2.94484
77 -1.30301 -0.885875 1.37555
78 -2.84322 -4.55441 -0.396447
79 0.0687619 0.226779 1.23255
80 3.62176 -4.82271 -1.24497
81 -3.78544 1.55535 -3.52601
82 -0.946562 -0.529615 -3.02209
83 -2.93282 -0.675934 1.65107
84 -2.38236 2.32133 -0.877555
85 -2.1808 -0.443852 1.04755
86 -2.33253 1.42175 -4.40541
87 0.0632464 -0.142141 4.1747
88 0.00548186 -0.757394 -0.883088
89 0.327351 -0.271005 0.560972
90 -2.5003 4.95921 0.69041
91 -3.87541 3.98412 3.72299
92 -2.02712 3.79851 -2.80008
93 4.85767 2.51789 0.593391
94 3.93975 0.537609 5.71215
95 -1.75362 1.6439 0.675449
96 0.91396 0.979907 1.26666
97 0.45449 1.32595 -1.67467
98 -1.08716 1.29176 3.62247
99 2.5287 -1.43952 -1.3762
100 -1.6291 0.403619 -1.593
101 -3.48046 1.26225 -2.04947
102 -2.68128 1.80554 -0.589264
103 5.90436 -2.16917 1.22384
104 2.66916 1.98159 2.04504
105 -2.8587 -0.102947 0.954027
106 4.62571 1.61559 -1.7903
107 -4.50137 2.25885 8.2572
108 3.0212 -4.44812 -3.81007
109 1.36678 0.0541019 0.863665
110 -0.187386 0.862373 1.39593
111 5.10121 1.28761 0.903712
112 0.878272 0.480196 -3.61332
113 2.86875 1.08823 0.219941
114 0.943034 -0.765536 -4.08503
115 -5.94978 1.32761 -1.77489
116 2.99248 4.27761 2.48349
117 3.0487 7.07208 0.592118
118 -2.0615 -1.16917 0.326392
119 -0.0784689 -3.67584 -0.27939
120 7.74973 4.70674 -0.984978
121 -1.05029 1.84098 -0.722864
122 3.8518 -2.38768 2.19939
123 -1.55082 -3.49842 -1.00044
124 2.97742 -1.75471 -0.12246
125 2.10094 2.04281 4.87129
126 -2.77182 -1.63462 0.813053
127 0.0895263 -1.25289 0.225576
128 -2.64435 -0.0089157 4.96597
129 -5.11173 2.23089 -2.1876
130 -0.0387363 -5.2314 -4.72278
131 -0.597662 -2.69332 -2.2186
132 -0.399709 -1.44596 4.09253
133 -0.135081 4.06526 1.77447
134 -0.0158195 0.12574 -1.51187
135 -0.0869029 -1.9454 6.43606
136 1.47127 2.5838 5.45932
137 4.36206 0.920629 2.76613
138 -0.752589 1.06568 -0.155799
139 -3.19938 -1.17119 3.37724
140 0.302314 7.65704 -1.86592
141 2.22745 1.27908 -4.14978
142 -6.17162 0.0616595 -3.39795
143 0.342273 -2.02005 -2.95722
144 2.49816 5.24479 1.26921
145 -1.20309 2.11339 -1.33231
146 -1.40794 -3.85535 -0.347405
147 -0.85694 -4.18608 -4.45531
148 0.687742 2.65261 0.235138
149 1.47993 0.551078 1.53486
150 3.4703 2.52018 -4.59456
151 5.40789 1.79067 -4.03474
152 -1.32022 -2.36246 0.963268
153 2.57241 0.596609 -2.80367
154 0.248501 -2.6304 -1.39182
155 -1.34535 -1.55746 3.31212
156 1.21842 -1.9803 -3.61933
157 0.971939 -5.72845 0.241781
158 -0.643867 -2.8536 3.59105
159 -7.88994 2.65104 2.48603
160 -0.0100964 -2.82294 3.7595
161 -1.53211 0.688343 1.13001
162 -1.84441 -0.715699 0.0926679
163 -3.99289 3.86319 -1.03196
164 4.01341 0.643152 -2.87043
165 -0.956552 -0.974991 -3.75669
166 -0.287158 -3.10184 3.48056
167 0.730293 -3.70156 -3.11235
168 -3.12983 -0.322426 5.37299
169 2.48555 -1.5035 -1.55052
170 -1.56184 0.56725 0.52513
171 -1.43967 -1.53835 0.178682
172 -0.212395 -0.899764 0.298267
173 2.62266 1.76003 0.184188
174 3.26779 3.04074 -5.25229
175 1.07304 -2.47871 -2.88161
176 1.83921 -0.100986 -1.00892
177 0.394099 -1.69145 2.60621
178 1.10445 -0.418457 1.41092
179 -4.34444 -4.7477 -0.308661
180 -1.98144 -1.63687 2.1667
181 -0.917825 -0.138566 -1.24394
182 -1.85492 -2.0074 4.93113
183 -4.87579 0.483749 3.26361
184 -1.95021 -2.58161 2.46516
185 5.7799 2.71908 0.333335
186 -0.784883 -2.58709 4.54095
187 6.20592 0.330586 -0.395365
188 -1.2257 -4.721 0.643467
189 0.469919 -2.85856 0.415287
190 1.80222 1.76382 -3.05685
191 4.96553 -0.474043 -0.426271
192 2.43663 -3.29151 -3.0397
193 0.445282 -2.42941 0.832001
194 1.06525 4.77679 -0.867419
195 1.42534 3.62391 -0.116097
196 0.96995 2.22379 -1.58538
197 1.55499 5.01532 2.02126
198 2.16288 1.8603 -2.27276
199 6.2319 -2.36322 0.310818
200 1.51123 2.10996 1.29708
201 3.76052 2.00909 2.67823
202 -0.950282 0.919347 -3.26193
203 -2.07331 -1.85702 -2.24517
204 0.322851 -5.31016 4.79706
205 -0.708619 1.84946 -0.309044
206 1.51828 -1.64631 -1.00578
207 -0.173963 -2.09928 1.08172
208 -2.4695 -1.73124 1.31201
209 0.247411 -2.17955 -1.86867
210 0.80091 3.1327 1.31765
211 3.50774 2.54838 1.20125
212 -3.51327 0.506612 4.16124
213 -0.119934 -2.00193 -4.19581
214 4.43905 2.91353 0.511699
215 -0.885565 3.04265 2.57693
216 -3.50266 2.05484 -0.411718
217 -3.62019 -3.14415 -0.772414
218 -1.9088 1.98509 -4.6515
219 2.63557 0.844569 -4.37928
220 -0.89647 -3.90009 -1.34922
221 4.73686 -2.72932 -3.92213
222 2.11569 -1.65514 -1.46615
223 0.624645 0.54693 0.727059
224 -2.58906 -0.493687 3.21175
225 0.743379 -0.671555 -3.04869
226 2.72925 2.06368 -2.60028
227 1.25712 2.60692 -0.754858
228 0.0287045 3.8956 3.0916
229 1.04948 6.22327 -0.443801
230 -1.43451 -2.02269 -2.64073
231 0.248867 -2.62676 -2.36618
232 0.160772 5.89029 1.81761
233 0.222461 1.05382 3.63002
234 -1.65173 -0.564407 1.43834
235 -2.28554 0.31644 3.19652
236 -3.01441 -1.78239 -5.24972
237 2.25618 -1.63297 -1.88049
238 0.00401827 -3.28239 -1.5925
239 -1.49022 -1.183 0.521078
240 0.949398 -1.75525 1.81579
241 -3.78469 1.49459 -3.34201
242 -0.562262 2.12138 0.547199
243 2.32295 -1.72726 -0.959777
244 2.99946 -1.25596 1.1868
245 -5.74198 0.468947 -2.88204
246 -0.281765 2.99849 -0.718551
247 3.24719 0.0367594 -5.73053
248 -2.20004 -0.100288 -0.764606
249 2.65127 1.4101 3.34872
250 -0.169321 3.45386 1.68661
251 3.79557 -0.100147 0.525584
252 -2.94973 -3.82034 -1.00104
253 -0.781173 -4.28355 -1.38745
254 -1.80421 0.513463 -4.24112
255 -3.16175 3.9839 2.44933
256 -1.62237 0.637348 4.49676
257 -7.62665 1.0881 3.33386
258 -2.44164 0.208268 0.790137
259 1.37705 2.61687 3.09019
260 -2.23561 3.16509 -4.29149
261 -1.56911 5.50203 -1.63567
262 -3.18003 -2.32534 3.38944
263 2.20563 -7.12319 -4.00551
264 0.820719 5.52299 4.24589
265 -0.694535 -1.69557 -0.207376
266 0.617715 2.25479 0.652927
267 0.168308 0.985512 -1.35168
268 2.78082 -1.07408 -0.579972
269 -2.3768 -1.78369 2.14187
270 2.87761 -2.77323 -0.663871
271 -1.55802 0.950483 -2.10952
272 3.64561 -1.90274 -0.980396
273 2.6276 0.715431 2.90799
274 -0.196683 1.39905 -2.58023
275 -2.64285 -2.77543 -1.50584
276 1.77012 -0.0226669 0.623946
277 1.87166 -0.981803 1.38366
278 -3.89736 -1.57632 1.13416
279 0.124016 -4.34319 -3.55027
280 -3.21402 -1.41333 1.12973
281 -1.12577 1.72319 -1.08715
282 -0.964651 -0.890064 -2.8464
283 0.984667 0.752706 -5.24141
284 -4.15105 -4.92106 1.80137
285 -1.83857 -0.72455 -1.06854
286 -0.213544 -3.00558 1.19639
287 1.87514 3.85438 -0.801802
288 -3.12608 -2.48991 -1.48161
289 0.785084 -2.30551 0.997087
290 -2.06707 -2.66939 3.19915
291 -0.453646 2.5858 2.68152
292 -1.32085 1.7424 0.161083
293 -4.21179 -3.68111 4.02155
294 2.27348 1.64835 1.1124
295 -0.670437 -1.69859 4.45659
296 2.6787 0.165229 -0.97856
297 -0.0770508 -3.0553 -0.439217
298 -2.03557 5.57044 3.69037
299 -0.755098 0.642585 2.60873
300 0.668299 -0.207556 -5.63019
301 -1.23146 1.69584 7.46067
302 -0.556942 -3.04144 -2.47172
303 2.46925 1.11825 -0.323239
304 -5.30772 2.12299 2.11176
305 -0.177767 1.59421 2.39804
306 -0.328752 2.12413 -0.77085
307 -0.697732 0.898802 2.61717
308 2.41505 -0.364902 2.71134
309 1.30004 -3.79688 3.87513
310 -3.69652 2.04298 1.94531
311 1.57416 -2.7585 -1.14176
312 1.56487 -0.226108 -0.279989
313 1.19604 1.21471 6.69485
314 1.20493 1.76968 -0.710454
315 -4.73798 -3.66153 -4.96164
316 -1.19679 -1.49808 -2.57892
317 0.207497 -3.40365 -3.75163
318 -1.00276 2.96489 -6.6608
319 2.00636 -7.50019 -4.55928
320 -2.46751 -4.55126 0.301768
321 4.15208 -1.34911 0.53789
322 -3.05071 -0.986824 0.746394
323 2.60159 0.629343 -1.43448
324 1.12694 -1.07068 -2.57134
325 -0.556078 -4.13548 -0.0583177
326 -1.27553 2.02659 0.2318
327 -0.0283077 4.75047 4.26654
328 -4.12628 3.06099 -3.14455
329 0.863542 -3.57861 2.59937
330 0.751338 2.75374 -0.489031
331 5.82978 1.68929 4.85434
332 -0.593725 0.778926 -3.81493
333 -0.571159 -1.32848 -2.24697
334 -0.961123 -1.65933 -1.64747
335 -0.925392 2.15051 -0.414987
336 1.37421 1.77079 -0.657931
337 0.749536 1.16887 -2.65034
338 4.27375 -2.23392 2.20402
339 -1.75793 -1.38108 -2.51756
340 -1.50781 -1.14893 -1.95458
341 0.121838 2.47112 0.254452
342 0.398398 -0.939995 -4.68562
343 -1.92465 -1.15545 3.11339
344 1.96518 -0.986384 -0.582837
345 -2.00142 2.37592 -2.82362
346 2.40128 -1.82427 0.129275
347 4.55484 -1.31522 -6.46874
348 0.796038 -1.43898 0.592389
349 0.860278 -0.352234 0.492705
350 2.43931 1.02792 1.57391
351 3.79997 1.5353 5.19371
352 -5.88938 1.33465 0.523223
353 -1.91185 -2.43169 -3.54428
354 -1.22374 -0.878623 3.17804
355 -2.17446 3.17519 1.26707
356 1.95974 1.24915 2.31317
357 -2.23968 2.20477 3.31478
358 -0.516163 -2.42941 -0.810496
359 0.451537 3.44182 2.09195
360 -1.27114 -2.33882 -1.32452
361 2.05703 -2.27175 -3.07372
362 -1.36882 2.94571 0.348111
363 5.29791 3.66538 -0.929236
364 3.11489 1.86328 -1.11911
365 0.625964 -0.6259 -0.438185
366 1.07658 -1.09858 3.74623
367 2.70818 -0.0962238 -3.95987
368 3.08016 -1.7133 1.21195
369 1.21487 -0.442443 4.2197
370 -4.7313 -3.21563 3.70196
371 1.78232 -1.97597 -1.06452
372 -0.244549 1.4573 -5.51209
373 -0.729404 0.839709 -3.65375
374 -0.482799 -1.54658 0.951132
375 -0.891625 0.298823 -1.56025
376 -0.985932 1.70542 -2.20594
377 -1.54328 3.21959 -1.54172
378 2.6029 -2.19722 -8.50334
379 1.90237 -3.86447 0.491288
380 -2.00734 -1.30527 -2.26535
381 -3.85821 1.22266 1.71117
382 0.481735 0.476272 4.2462
383 -2.13489 0.0983726 -4.61366
384 -0.40752 2.29256 -2.09325
385 -2.80772 2.8326 0.165831
386 0.133967 0.652148 0.716962
387 -0.215649 4.73733 0.82231
388 1.30741 1.04624 -3.3703
389 -6.52795 -1.12266 2.44671
390 1.78501 0.26954 0.162153
391 -0.0807617 0.172394 -0.892508
392 -0.608336 0.897235 1.82348
393 -3.01782 -1.44331 1.35587
394 3.95276 0.502259 -0.767362
395 1.34339 1.76019 -3.36063
396 0.633574 2.71162 4.76435
397 -1.35007 -0.73862 -2.55343
398 1.20284 -3.55986 -6.70569
399 1.85016 -2.08778 3.36112
400 -0.4369 3.6646 1.64282
401 -0.785174 -0.0263571 -1.37194
402 3.20133 -2.17152 -4.16045
403 -2.25047 -7.78259 -5.03665
404 2.22995 -0.833733 2.84594
405 1.67577 1.48853 1.88987
406 -1.10148 0.43486 0.316674
407 1.56371 -5.13412 -2.82715
408 0.538726 -1.27582 3.29163
409 4.01943 -2.49154 0.0621361
410 -2.20386 2.99209 0.584279
411 0.0851832 -6.4633 1.73225
412 0.217246 -1.13497 0.315745
413 -2.66056 -2.25334 3.10255
414 -0.837245 0.758202 -1.16462
415 -1.07119 0.0588463 -0.840359
416 -2.22788 1.70453 -0.16335
417 -1.32195 -0.117132 -1.06815
418 -1.23132 0.175343 3.10479
419 -2.14894 -2.01213 2.97347
420 0.790034 -4.06705 -1.20384
421 1.40051 -2.17152 -1.97788
422 -0.591834 -2.34521 -2.14516
423 -0.696411 -4.10161 -4.01917
424 3.47799 0.792449 2.05362
425 3.55955 0.934022 -2.91224
426 -2.29324 -2.04183 -0.230567
427 6.12798 3.7126 2.43562
428 1.82957 0.783565 7.05612
429 3.93304 -1.53757 0.594472
430 -1.70526 0.310978 0.954557
431 -0.55003 0.611136 0.473404
432 1.87387 0.479567 0.534807
433 -0.0236017 3.38262 0.590471
434 -1.26035 -3.00571 0.55858
435 5.04605 -2.14295 4.43772
436 -3.58201 -1.20699 -6.54575
437 -5.51805 1.88218 4.65889
438 2.27106 2.63383 -5.39224
439 -3.6037 -3.85463 2.10552
440 -1.13829 -2.51902 5.13099
441 -1.35159 -3.29325 0.00685198
442 -5.12202 0.039372 -3.53838
443 -3.59569 2.47069 -1.4874
444 -7.15134 0.249857 3.69052
445 -0.737113 -0.519884 1.48483
446 2.36382 1.10647 2.69974
447 6.3287 5.66371 -0.352994
448 0.49828 -0.979403 -0.82825
449 -0.032091 -2.96583 6.10662
450 0.88955 0.73866 -3.76696
451 -2.03806 -3.21841 0.427965
452 1.17425 -2.88109 2.90208
453 1.24579 -0.22285 1.80878
454 -0.0123061 1.33962 2.89078
455 2.08237 -3.23652 -2.20887
456 -0.718354 -0.369315 0.565974
457 -0.622649 2.92825 -3.26798
458 0.401173 2.78587 1.18169
459 3.16577 1.71915 1.47907
460 -2.19279 3.6111 -1.15132
461 -1.8813 1.49028 -0.861171
462 -5.82338 -0.0312114 -2.95051
463 -4.24185 3.78163 -3.25043
464 -0.47739 -4.57677 1.98172
465 -4.24125 -1.52022 2.16235
466 2.51558 -1.5706 -2.76803
467 4.63679 -2.17515 -0.422834
468 1.3434 -0.684354 -2.74473
469 -4.01376 0.154124 -2.77781
470 1.79191 0.968723 1.41379
471 -2.74439 0.988875 2.8044
472 1.17828 0.250637 -0.375678
473 1.75183 -1.91117 0.298581
474 -1.27678 2.74349 -0.907381
475 2.27811 0.910115 1.02052
476 -2.94705 3.13386 -3.41803
477 -3.01064 0.204267 1.09967
478 -0.651661 -3.44693 -2.88389
479 1.9692 0.405976 5.60276
480 -2.01602 -3.20299 -2.83907
481 -4.02019 3.506 2.68376
482 -2.43793 -2.16856 -0.833144
483 -1.40808 -0.597875 4.46516
484 4.82192 -1.91356 -1.98914
485 2.98458 -0.585865 -0.59624
486 3.74137 -0.638766 0.0791682
487 2.56709 -0.048493 -1.94427
488 -0.557483 3.4808 -0.440515
489 -1.47661 1.53057 -1.55515
490 0.569771 -0.879191 -0.216623
491 -2.53819 -0.713158 -1.70798
492 -1.00557 0.157918 0.848096
493 -2.69996 -0.316464 -0.292478
494 0.00613769 -0.7431 -2.5249
495 3.09536 0.670761 7.52149
496 -2.12494 3.48634 -0.227279
497 4.25847 -2.79011 -0.481805
498 4.78389 -2.27893 -1.38332
499 1.53574 -1.93588 -0.874982
500 -0.609751 -3.41176 -0.779605
501 1.32992 2.90761 5.40068
502 1.80225 -0.277656 -1.92335
503 0.503421 0.607267 -1.55679
504 -1.92054 -0.872075 1.12345
505 1.56309 0.241713 0.675896
506 0.861804 0.449752 -0.683576
507 -0.469877 3.21889 -1.69029
508 0.375939 -2.3083 3.33182
509 1.93546 0.411961 -1.14042
510 3.20912 4.8971 2.96355
511 -2.87721 -0.661983 -4.10434
512 0.105686 -0.398709 -1.48221
513 -3.07637 2.81691 0.556301
514 2.88334 2.68393 -2.60611
515 -2.86209 3.37972 -4.06893
516 3.15152 -3.69681 -4.12621
517 -1.79011 0.369178 -0.067857
518 -2.28068 -0.663221 -0.98075
519 2.4342 0.118864 1.70271
520 6.58219 -0.0443444 -1.01749
521 1.47837 -6.85625 -5.14761
522 3.32403 2.19856 0.402612
523 5.09453 0.162335 -2.56639
524 -1.81938 3.25018 -1.166
525 -1.68087 -3.06905 0.32878
526 -0.681566 3.784 -2.91753
527 -1.35083 -1.21596 2.36572
528 2.41098 -1.6659 0.335018
529 3.20632 1.86848 2.58233
530 2.70683 -0.416657 -1.18406
531 3.38934 2.22276 2.46945
532 1.34322 -1.2352 -3.51636
533 1.09652 -1.47843 3.07763
534 4.44957 -0.579041 -0.204548
535 -3.06274 2.56504 2.12735
536 2.97511 1.16851 -2.21076
537 -2.51269 1.12229 -2.62777
538 6.22015 1.54603 4.3954
539 2.2141 4.73585 0.266641
540 -0.0602484 0.476718 2.35626
541 -1.6238 -1.11872 1.02304
542 -1.04575 -0.103532 2.00637
543 -0.962027 3.05289 -0.917981
544 -0.314772 -3.18233 -0.676917
545 2.62771 -1.23551 2.20468
546 -3.13595 2.17864 -4.70832
547 -3.12944 3.11593 4.47586
548 -6.73584 -1.32151 0.6372
549 4.61341 3.98208 -4.90624
550 2.69234 -1.15206 4.39964
551 1.41173 1.61592 1.5591
552 -0.121052 -1.61742 4.23532
553 3.47827 2.29375 1.06004
554 5.17101 -4.10604 -4.46894
555 -3.4895 -1.11227 2.50476
556 -1.70855 1.07092 1.74839
557 -0.239085 -2.33061 -5.05241
558 0.909443 -0.183385 4.28656
559 2.21898 3.52056 -0.0475973
560 3.99534 -0.188784 -2.40813
561 0.0035567 3.53488 -2.07032
562 -2.2003 -6.26311 4.60095
563 0.643777 -0.120425 -2.81701
564 -0.269719 -4.21777 0.314315
565 -3.58226 -2.65023 2.51178
566 4.26147 1.58058 1.89624
567 -0.160675 3.71953 0.490893
568 -1.84033 1.3323 1.01303
569 -2.54162 -1.0154 1.51754
570 -0.8057 -0.723969 -2.71519
571 -0.823554 0.58205 -2.82034
572 -0.240691 -0.684702 -1.28469
573 2.13239 2.94244 -0.880725
574 1.22655 -1.45877 0.444604
575 1.2701 -4.59412 -0.562512
576 -1.39481 2.57768 3.86123
577 4.49801 -0.658786 2.46621
578 2.876 -1.74888 -1.37167
579 0.949488 -2.00411 0.624635
580 -3.91007 -6.05266 2.33738
581 -2.577 -0.709702 -7.11112
582 -2.28823 2.83605 -0.344904
583 5.2142 1.05763 2.46358
584 -0.734626 -2.2818 3.50665
585 -0.401669 -4.28288 5.12099
586 -1.28239 0.317024 -3.78692
587 1.05777 0.398543 3.47628
588 2.73912 -2.74459 2.62583
589 1.33214 -1.02336 -1.38331
590 2.53786 0.738007 2.47341
591 3.46926 -1.84706 1.98399
592 -0.259468 -3.08606 -1.49974
593 2.94054 -4.72685 -0.0188845
594 -0.223039 1.48328 3.24351
595 -0.999308 -0.14274 1.81561
596 -1.64548 -0.663064 -2.00073
597 -1.28515 0.58529 2.49304
598 -1.87765 0.639488 -2.11017
599 2.50468 -0.802627 0.901056
600 -0.0837471 1.29912 1.36017
601 1.18913 0.874833 0.604342
602 -0.743479 -0.74097 2.97099
603 0.580402 0.618511 3.32802
604 1.70995 0.774502 2.56121
605 2.88944 1.35725 -3.45944
606 -5.92183 -3.80753 0.611647
607 -4.23931 -1.94137 -1.59887
608 -1.07137 -2.99039 1.60205
609 -1.24823 3.04733 1.93125
610 0.992583 -0.820883 0.22288
611 -0.255142 -0.110784 -1.25705
612 -0.371814 -2.01931 -1.15686
613 -0.775833 -2.59513 1.16831
614 -0.943447 0.665641 -2.87969
615 -3.0949 1.2926 3.23873
616 -2.34809 0.597337 -1.12432
617 -0.891353 3.40571 -3.20593
618 -2.35906 -0.435784 -0.262763
619 4.68591 -2.02928 -1.53755
620 1.31441 -0.0421149 -0.53898
621 -1.61468 -3.73555 -4.876
622 -0.732867 -6.2441 3.43985
623 -0.288008 -1.04646 3.61271
624 2.61006 0.440118 -0.511312
625 -4.62573 -0.897936 1.02664
626 -2.7203 -2.23276 -1.46026
627 1.76861 1.02419 1.93244
628 0.866906 -1.79062 2.40589
629 2.41217 0.229592 -1.97822
630 0.161143 -2.8712 3.00747
631 -1.59655 -2.45071 -0.636866
632 -3.49488 2.39835 -1.07881
633 0.786252 -0.0416295 -1.86879
634 2.10133 -1.64572 1.66271
635 -3.45679 0.289017 -1.41631
636 -1.89809 -0.782701 -1.86186
637 4.1116 -1.24156 -4.40559
638 1.53244 0.659718 -3.37306
639 3.09224 -0.220706 -3.42209
640 0.0189583 3.25531 0.620551
641 -4.92022 0.411258 -1.89613
642 -1.93662 2.90923 -0.554508
643 -1.13686 -2.17942 0.404054
644 0.184212 0.624825 0.911058
645 0.527436 -0.265127 1.0026
646 2.40839 3.1981 -4.15062
647 0.798171 2.62346 -1.66515
648 -0.863881 -1.07964 6.12701
649 -6.01645 0.09971 -5.8193
650 4.53627 1.31026 1.25104
651 -3.71797 -1.16794 2.89684
652 1.15134 -0.799116 -2.48458
653 0.550714 -0.281962 -1.84609
654 0.083733 -2.26463 0.0177222
655 -4.43908 -0.115209 -2.29316
656 0.216404 -3.93182 2.1691
657 -3.78338 -3.66708 1.94765
658 1.46103 2.60263 0.623132
659 -5.3596 -1.71466 0.607057
660 2.26072 1.44556 4.1165
661 1.99328 -3.01143 -5.43173
662 1.42993 -3.18993 3.63843
663 1.60423 -6.20024 -5.84668
664 -1.86032 -2.19642 1.21357
665 1.77195 2.80156 -1.12813
666 2.79022 -1.6283 5.25341
667 -0.347738 -2.81494 -4.8775
668 0.603308 -1.76463 -2.99305
669 3.37216 -0.504315 -1.17978
670 4.50188 -1.35571 1.04815
671 -2.98098 -2.72324 3.81876
672 -1.86418 -1.49078 2.66638
673 -2.81316 3.28335 -3.7241
674 -3.02507 -5.69175 -3.04478
675 -2.24187 2.52767 1.52309
676 -1.50706 -5.80226 -1.39647
677 -1.41561 -2.3198 1.80076
678 -2.86063 3.22511 3.18428
679 -0.589207 -0.582065 0.67945
680 0.538363 2.01658 -1.21068
681 -0.63572 -3.96592 -0.0347426
682 3.7836 -0.114367 3.05452
683 -1.77321 -0.735881 3.76544
684 -1.72831 0.657526 2.04696
685 -3.36326 4.86817 1.46873
686 -0.801072 2.28877 5.80976
687 0.486859 0.184051 2.52359
688 0.151304 5.5981 -1.84647
689 0.748493 -1.39236 -3.61456
690 -1.33395 -5.08229 -0.974374
691 1.65139 5.67901 3.11206
692 -2.84198 2.47419 0.56326
693 -1.29509 0.448261 0.5164
694 -2.33386 3.59592 -2.75065
695 1.86351 0.0398144 3.88626
696 0.587966 -0.566026 -2.0046
697 2.26729 2.35235 -1.98331
698 3.91408 -2.4614 -1.84685
699 3.79736 -0.96856 3.02102
700 -1.38084 -2.2436 2.26181
701 0.811367 -1.24479 -0.696373
702 -4.33163 0.647288 2.51045
703 2.4511 -0.540522 -0.739913
704 -0.445841 -1.96087 -5.43134
705 1.20289 -3.7794 -0.735522
706 2.4661 -0.282759 2.76204
707 -1.0315 0.977968 4.2984
708 -0.941923 0.414957 1.99007
709 1.5303 2.63399 1.03566
710 -1.90447 -0.417364 3.79809
711 3.11681 -0.557915 3.21435
712 -2.25354 0.257161 2.63672
713 1.51861 0.971493 -1.26985
714 4.80433 -0.0594799 -1.11692
715 3.63612 1.94213 -1.54988
716 -1.72369 -5.0629 2.11295
717 0.0406795 -0.720606 -0.620106
718 -1.77376 -4.96508 0.00146231
719 2.06001 -1.52207 -1.46195
720 0.446537 0.364605 1.71417
721 0.653958 -1.70018 -0.0987142
722 1.59291 -1.33446 -2.90143
723 4.17242 -3.99694 2.82672
724 1.78203 0.741862 4.02367
725 -2.02544 -2.22171 -0.58524
726 0.721793 0.667964 0.941537
727 -2.2559 -0.833603 4.25872
728 2.38098 1.3034 -3.06705
729 2.91965 3.65198 1.00463
730 3.38238 -5.62427 0.582178
731 -0.242324 -0.844131 4.50454
732 0.465118 3.38913 1.21364
733 1.91583 1.97119 1.29201
734 3.88237 1.01453 -0.254729
735 -1.60218 -0.664433 4.16808
736 0.583731 1.89866 0.718661
737 -1.63779 -1.60104 1.92157
738 1.51355 3.2834 -3.76895
739 -0.0652804 -2.54371 2.23537
740 -2.3785 2.04433 0.0644181
741 0.419397 -0.328855 2.26747
742 2.42364 1.59708 3.27257
743 -2.13976 0.718692 0.450676
744 5.40913 -3.05092 0.811366
745 1.26525 1.13502 5.8776
746 -1.69135 1.25942 -0.100905
747 -0.99294 -0.0340416 -1.2068
748 1.30344 2.87023 -5.2359
749 -1.543 0.434439 -0.54299
750 4.28924 0.778377 0.804254
751 -3.74067 1.16823 -1.35042
752 -2.09843 -0.995295 2.6315
753 -0.967506 0.958303 1.13054
754 -0.676887 0.847396 0.278974
755 -3.34487 -3.40445 3.48704
756 -3.12977 -1.27921 5.99448
757 2.79385 1.04964 -0.6273
758 2.02235 2.61252 -3.316
759 -1.33574 1.12228 0.259185
760 0.556969 -2.81705 1.32624
761 -1.09169 -1.47492 0.0854143
762 0.0721488 3.78663 -0.974641
763 3.51627 2.53491 1.4853
764 2.35902 -0.863223 -2.99662
765 -0.329949 3.22137 0.856708
766 -6.00076 2.12673 -2.03953
767 -2.4998 -0.447228 -1.68677
768 -4.44653 2.18758 1.42619
769 -2.2705 0.99802 1.59543
770 0.440616 -0.476322 -0.978615
771 -1.08055 -2.15844 1.73162
772 0.157793 -1.96236 -0.43645
773 1.42656 1.94628 3.35725
774 -0.377821 1.34818 -2.18181
775 0.321763 1.20841 0.833457
776 0.525017 0.820886 3.23351
777 -1.69355 -1.93438 0.417854
778 -3.07121 1.32602 -3.9553
779 2.95822 1.25719 3.27601
780 1.66507 -1.05955 0.9059
781 -1.63728 -2.36208 -0.998843
782 -3.29163 1.85469 -0.971102
783 -0.909864 3.49788 -6.35582
784 -3.35397 2.81027 5.11415
785 3.33364 -0.920878 -0.146545
786 -6.62599 2.05725 3.14576
787 -0.752537 0.354323 5.44162
788 -5.07798 0.319329 -0.427029
789 2.67635 -1.07221 0.626468
790 0.087888 -4.3803 -6.03496
791 3.11515 0.488359 -1.80312
792 -0.835196 -2.08172 1.20207
793 5.21813 -1.33805 -1.68407
794 2.1733 0.12467 1.43594
795 2.55275 -1.03199 2.16009
796 -0.781866 0.104492 1.64147
797 -6.86874 -3.09974 -2.16868
798 0.501089 -4.28559 2.48983
799 -3.96121 1.12051 -0.631171
800 1.50712 -1.05187 1.67828
801 -3.0759 -2.72383 -3.31022
802 -1.76684 0.208326 1.22249
803 -2.97671 3.34913 1.53229
804 -0.6239 1.3213 2.49621
805 -4.29529 0.431215 -0.920881
806 -1.63658 -0.526596 5.39367
807 -1.35717 5.48163 -4.59149
808 -1.42922 -0.223675 0.974192
809 -1.98111 -5.24589 2.39397
810 2.06775 3.53311 -2.71011
811 2.55566 2.81042 -1.04099
812 -1.45327 0.574042 -2.05274
813 2.48784 0.755425 -0.737999
814 2.27805 1.8985 0.382851
815 1.46815 -1.25105 5.82124
816 2.47342 -3.37074 -0.572574
817 -2.17581 -4.51683 -0.40118
818 1.80322 2.2496 -1.87669
819 0.333828 1.67927 -1.00716
820 -0.0925729 -3.15261 0.0570936
821 -2.80855 1.78073 -3.24541
822 -2.02135 -2.72394 -3.78252
823 0.328399 -1.19302 2.51014
824 2.04222 0.521777 4.46137
825 0.525047 1.16734 4.54478
826 0.103996 2.59025 1.62598
827 -2.82915 4.84634 2.49822
828 2.74886 2.29873 1.98562
829 0.702165 -1.24226 2.83978
830 0.662079 -6.62148 -0.198533
831 -5.46005 -3.77784 -3.5863
832 5.97712 -2.45109 2.08155
833 -1.81541 7.35409 1.07885
834 0.304443 -1.39831 -0.3843
835 2.05243 -2.46448 2.535
836 1.06365 1.51701 -2.96837
837 1.98626 2.317 -0.865984
838 3.51256 -0.697027 -0.344609
839 -2.2308 1.8681 3.34704
840 -0.539874 -0.528993 -1.75191
841 -0.593654 -0.763035 -2.43096
842 -2.935 -3.89508 -1.25687
843 1.63257 2.66172 -2.63094
844 -0.0154743 2.19127 -3.5167
845 0.0682385 -5.90856 -0.668649
846 4.9384 3.11585 2.65327
847 1.95169 0.680839 -0.351344
848 1.49292 1.08885 -1.35382
849 -5.19745 0.58064 2.47978
850 2.49885 -0.628329 -3.10205
851 -0.841614 1.95965 2.99174
852 -5.19945 -1.43612 -1.88803
853 0.9537 -1.47814 5.56674
854 1.05464 -3.86249 1.22118
855 -1.72979 3.17747 3.85225
856 -1.9352 -0.927368 -0.726112
857 1.20712 -2.1915 0.986976
858 -2.4863 0.72138 1.39911
859 3.9436 -2.10267 -1.29906
860 3.41893 -1.34573 1.2579
861 -2.37528 -4.60315 -0.749914
862 2.45508 1.39115 1.48984
863 -2.59087 -1.02644 1.96484
864 3.82906 1.44515 -0.136964
865 -0.758258 2.29257 -2.08866
866 -3.24452 -4.18527 0.072938
867 -0.413607 0.68324 -8.93023
868 -0.136895 -1.41375 1.23676
869 2.51565 1.94285 2.86728
870 -2.32582 -2.90603 1.53522
871 -1.08517 -2.75719 0.407207
872 -2.85413 1.17483 1.79935
873 -0.166576 1.99427 0.103515
874 0.941749 -2.49841 1.65184
875 1.74011 1.81413 -5.29291
876 2.48454 -0.511512 2.85575
877 -1.39219 -2.92262 3.31539
878 1.97034 -1.49585 3.20986
879 1.76613 1.13228 0.806297
880 -0.65262 -0.807516 1.7616
881 4.55022 0.570463 -3.2481
882 0.512176 4.44766 -0.0108694
883 0.648047 -3.48144 -5.43618
884 3.2129 -3.3282 -2.19055
885 -2.14606 0.936281 0.68078
886 1.14882 0.893252 -3.63986
887 2.98148 1.21738 -0.332199
888 2.3154 -4.07125 -4.43861
889 4.57205 1.35699 -0.144513
890 1.04803 3.5636 -0.876437
891 1.1048 -1.41112 5.57267
892 1.89509 -2.40685 -1.08441
893 -1.23575 2.9413 0.955709
894 -0.931249 -4.39342 -3.04846
895 4.57571 -4.55036 -2.50477
896 3.08639 -1.31555 1.14362
897 -4.91985 -2.67933 -4.58865
898 2.92416 -0.631416 4.5134
899 4.95302 -0.657605 2.4101
900 2.64965 -2.5685 -4.26685
901 2.3968 -1.11666 3.51349
902 1.45224 -0.748213 2.27782
903 1.18307 0.605967 -1.18005
904 -3.08378 2.77544 -3.72513
905 3.43873 2.60852 -0.0810608
906 -0.0847955 -1.14429 -1.47717
907 0.558582 1.58858 0.514812
908 -5.66619 0.224546 2.05371
909 1.38761 -0.576162 0.459467
910 1.57251 -1.50724 -5.34877
911 -0.957597 -2.20456 0.00273096
912 -1.83385 6.33277 3.45738
913 -2.17157 1.59099 -0.970663
914 1.27356 5.63145 2.87611
915 2.67718 -0.868595 0.991619
916 1.11278 2.94498 -3.04254
917 -1.58068 3.03914 -6.56291
918 4.86843 -0.875779 -2.02062
919 2.64515 -0.573377 5.16987
920 -1.48402 0.39292 -0.774539
921 0.581673 -1.68048 -4.08364
922 -1.79889 1.9126 4.39666
923 1.76917 -1.31637 1.96682
924 3.72535 5.90118 1.91288
925 6.89613 -5.07592 2.40818
926 -2.21773 -1.45075 -0.333121
927 1.32783 -1.1525 -0.615519
928 -3.69116 -5.71088 3.22702
929 0.0851164 3.00202 -1.1547
930 3.46378 2.76336 -3.23513
931 -3.15043 -0.939954 -3.3487
932 1.98828 0.695959 -1.18911
933 -2.46675 -2.18584 4.42306
934 0.0295046 0.508076 -2.94636
935 2.88075 -3.07336 1.39599
936 3.81322 -0.79339 -0.00922898
937 0.977054 1.47672 -0.794991
938 -2.33529 0.977268 -2.43567
939 0.168423 -1.82707 2.22287
940 -2.93333 -3.53753 -2.53062
941 -3.02407 1.5848 0.518632
942 -0.627036 -4.31915 1.40091
943 4.37938 -2.56009 0.594729
944 -1.19512 2.43723 0.0379587
945 -2.94947 1.27443 1.68185
946 -1.8622 2.72208 2.9489
947 -1.37778 -0.768615 -1.05932
948 0.423376 3.04793 -2.62542
949 3.52986 0.329631 0.875513
950 0.408009 -0.17112 -1.89885
951 0.828288 -2.50114 -1.01568
952 0.469369 1.71668 -0.695955
953 -2.52598 1.39725 2.12328
954 6.18363 -0.920138 -0.497384
955 2.12294 0.256702 1.7582
956 2.85577 4.27461 -1.003
957 -0.883909 1.5598 -0.546588
958 1.74353 2.43257 -1.32089
959 -1.63044 0.81837 1.56815
960 -1.16253 -2.26168 -3.54805
961 1.00522 0.299659 5.48015
962 4.44531 -1.15811 1.51911
963 -0.130688 3.67281 0.527657
964 4.72546 -3.74695 2.49604
965 -0.635111 4.94464 1.95331
966 -3.40649 1.39084 3.9078
967 3.79249 0.832486 1.67079
968 -1.00829 1.92199 6.45097
969 -1.25854 0.010863 0.0554362
970 2.85359 3.34469 2.73575
971 -3.46435 -1.4566 3.63172
972 1.45573 1.2674 -0.273212
973 0.502477 -1.53871 5.13089
974 -3.5966 -5.18307 0.845766
975 0.548464 0.590067 -0.562115
976 3.18034 1.53729 -0.109085
977 0.0870222 0.715459 3.29044
978 2.43395 0.323575 -6.04451
979 -1.62137 -1.25047 3.37536
980 -1.73508 1.44479 -3.33868
981 0.0754637 3.26665 -0.479557
982 1.43597 -0.017555 -0.0833433
983 -0.910303 2.64911 -1.94779
984 2.11254 -0.337612 -1.3104
985 -1.08591 -1.77407 1.66868
986 0.0581503 -1.7562 -0.546195
987 0.920524 2.2304 2.00388
988 1.43305 1.02814 -1.33348
989 0.295914 0.16952 1.34503
990 -1.2687 0.56621 -4.16577