ITEM: TIMESTEP
0
ITEM: NUMBER OF ATOMS
100
ITEM: BOX BOUNDS ff ff ff
0.0000000000000000e+00 1.0000000000000000e+02
0.0000000000000000e+00 1.0000000000000000e+02
0.0000000000000000e+00 1.0000000000000000e+02
ITEM: ATOMS id x y z vx vy vz
1 91.0652 33.48 98.2207 -3.39831 3.00378 3.99504
2 94.9422 93.0865 5.15216 -3.91779 -4.03043 -3.67292
3 92.3121 88.7449 35.6524 2.32495 0.873582 3.7079
4 10.589 69.5043 58.3283 2.47901 -1.27986 -2.44168
5 24.2648 17.7783 99.6805 -1.93937 2.65063 4.30449
6 30.7225 53.0595 70.9502 -2.95126 -1.22854 -3.81871
7 60.454 49.8803 37.8033 -1.94783 -2.69726 3.28218
8 59.8639 32.5384 72.4944 -2.43598 3.71076 -2.07037
9 12.617 53.1389 5.70933 3.73167 3.87414 -1.48836
10 56.6858 17.4015 66.6624 1.16008 0.250348 -2.41794
11 94.2425 33.5136 62.4291 3.56394 -1.26572 4.29014
12 46.1659 9.68729 14.2176 3.89553 3.83229 -3.66979
13 55.3942 9.75873 14.9666 3.67058 3.46096 -1.06117
14 43.2333 22.9085 23.4817 -3.319 1.81535 0.878246
15 57.4825 7.63213 73.1575 -2.14934 -2.60865 4.415
16 58.3709 39.753 28.6779 -1.59703 0.40887 1.95777
17 89.3567 17.513 40.4572 0.945835 0.136959 -0.877212
18 63.5562 88.6772 98.0693 0.895367 -1.34625 2.08983
19 51.0842 71.3494 69.1629 -3.14555 0.415662 -3.62213
20 21.1121 30.7516 42.3978 0.623548 -2.64088 1.59104
21 79.0774 54.3005 28.3237 3.83569 -1.26285 1.22898
22 36.3854 29.7176 64.236 -0.276193 -3.30065 -2.89444
23 13.7112 44.8844 72.1726 0.513082 -3.29454 -2.83038
24 4.65293 1.75784 43.9914 -0.527004 -2.16987 -2.1021
25 63.6726 45.5505 67.3117 0.691688 -3.47642 2.14655
26 7.86398 69.87 4.85978 0.767675 -0.729203 -1.65769
27 78.3289 73.707 92.8582 3.41781 -2.63134 -0.650232
28 67.2775 33.7607 15.4207 1.21116 3.45517 4.2772
29 76.4502 97.9016 33.0066 0.144456 1.97316 1.8049
30 41.7451 9.45514 12.4548 -2.41898 -1.49907 -0.484258
31 27.5706 79.0684 3.00738 2.53865 0.515009 -1.68798
32 45.0335 78.781 72.2874 -1.11269 -1.5875 1.38351
33 34.2161 69.8885 15.9994 -3.05196 -0.290326 2.06231
34 2.55786 89.9724 66.4478 -3.8267 -3.97884 -0.347956
35 88.631 21.9009 88.2517 1.22112 -0.233356 1.64657
36 46.9287 30.3046 29.4926 -3.55206 1.84663 -3.69479
37 81.8863 63.1516 89.0791 2.47463 2.1748 3.8315
38 52.1963 62.4081 93.1035 1.52944 -1.24171 -2.79154
39 90.1424 22.4833 76.5078 2.31395 4.24411 -1.28746
40 67.4213 50.0489 71.2111 -0.654293 -3.32051 -3.04521
41 45.6876 71.9513 85.0301 -1.8666 2.63335 -3.85322
42 0.262612 13.7224 32.7736 -0.373038 2.60877 2.07213
43 26.1601 72.7439 7.20495 -1.29823 1.84821 -2.74204
44 93.6134 60.6506 55.0609 -4.00588 3.56594 1.57269
45 8.34251 12.5382 29.1614 3.35575 -2.25605 3.43752
46 15.9345 11.0564 24.9641 -0.210951 -1.5373 -1.58801
47 72.43 31.4424 52.2421 2.77889 1.27202 3.50829
48 32.9142 88.3462 34.1125 0.239572 1.20843 3.85248
49 27.9711 11.0311 99.3153 3.48501 -2.20624 2.4331
50 92.5152 2.58683 76.8422 1.54174 0.151378 1.98008
51 87.5566 64.5589 42.0927 -0.317096 2.02464 3.16198
52 52.0472 57.055 24.1302 -4.20219 -2.95554 -1.30739
53 56.7778 64.0674 80.0459 -1.98724 2.09243 -3.49421
54 31.4674 73.3446 2.52788 3.78188 1.05812 0.59879
55 86.0701 79.6507 88.8404 -3.51113 -3.05682 -1.61633
56 41.427 63.1175 15.9251 -2.86181 -3.18355 -1.97531
57 53.2807 88.9241 46.9372 1.97012 -1.43999 0.357705
58 74.1079 31.1195 25.1974 -1.40958 3.42686 -1.19288
59 92.4056 60.8527 52.0777 -1.83234 -3.18572 4.38377
60 69.5954 89.1842 18.1625 3.68795 -3.90794 2.4617
61 56.6919 20.3801 27.725 3.26386 1.39239 -0.510348
62 73.5114 6.0844 60.4623 0.226822 0.7506 -2.04664
63 89.2437 18.043 48.2757 0.631418 1.35035 2.7357
64 69.5725 5.41423 96.952 -1.53331 2.14381 -3.89423
65 71.9154 81.8361 19.8548 3.13672 2.68315 3.48788
66 0.330208 49.806 89.6383 -0.681499 1.26911 -2.7484
67 50.3352 84.5441 32.1549 0.332323 3.47628 -0.096007
68 28.06 4.18494 36.2262 2.11362 -1.46761 -1.95536
69 53.9102 68.0058 74.2319 3.67858 1.07541 0.343643
70 15.9203 71.6634 47.1004 1.72768 3.49853 -2.55704
71 16.8347 41.2071 67.9841 0.624072 -2.38612 -1.73919
72 9.32276 87.6254 20.1529 2.06261 -3.6088 1.06076
73 9.50941 24.73 37.7691 3.40815 -2.58601 0.0184681
74 84.5264 34.5799 85.1254 1.72572 -3.66612 4.18163
75 3.0639 95.0452 24.7325 1.9261 2.87007 -2.4123
76 79.9274 39.1298 53.769 -4.19641 0.130607 3.55611
77 95.7911 60.3417 62.4942 0.0804045 3.10167 -1.3603
78 39.9667 20.4977 5.07907 -1.82475 -3.77125 -1.0121
79 63.9916 6.43187 0.513091 0.386158 1.6872 2.23844
80 23.5241 69.5545 2.28721 -2.86303 2.00002 -0.0820498
81 41.1105 44.3788 74.2515 -2.78482 -0.604836 1.70408
82 45.599 82.6049 41.2531 -3.4273 3.36521 -2.38681
83 40.8569 81.5926 26.6449 -3.41133 -2.01408 -0.88014
84 21.4406 52.8452 69.882 3.00469 -1.17164 3.17014
85 6.52732 4.59243 84.9677 -3.9626 3.99981 -1.99512
86 51.8625 53.621 8.38621 2.61135 -0.782508 0.488299
87 46.978 58.815 3.89832 3.96813 1.0317 1.23454
88 19.1413 8.22721 74.7057 -0.806392 -2.37606 -3.67604
89 78.2038 71.343 62.4418 1.2484 -3.57908 -4.06655
90 58.6792 21.0176 43.3338 -2.21269 1.81965 -3.91482
91 11.7514 4.9398 23.2325 -0.708565 -0.33357 2.24012
92 69.2197 75.998 98.4376 -0.324675 2.93582 -0.582158
93 41.0324 31.2932 45.6165 -0.730258 2.84924 -1.83156
94 75.8966 93.5562 99.1851 -2.39088 0.390545 1.8664
95 3.55639 72.3135 73.1564 -3.66638 -3.7364 3.15665
96 40.429 89.3737 3.47676 0.21103 0.456895 -3.39318
97 33.9292 48.6212 76.5225 -0.206735 0.901126 -3.77702
98 13.7735 91.3138 11.0589 -2.58754 -3.42553 2.27896
99 67.6202 92.8367 7.12995 2.46394 1.97262 1.23006
100 33.0561 74.1882 81.5994 0.794041 -2.33159 -0.404197
ITEM: TIMESTEP
50
ITEM: NUMBER OF ATOMS
100
ITEM: BOX BOUNDS ff ff ff
0.0000000000000000e+00 1.0000000000000000e+02
0.0000000000000000e+00 1.0000000000000000e+02
0.0000000000000000e+00 1.0000000000000000e+02
ITEM: ATOMS id x y z vx vy vz
1 90.8953 33.6302 98.4204 -3.39831 3.00378 3.99504
2 94.7463 92.885 4.96851 -3.91779 -4.03043 -3.67292
3 92.4283 88.7886 35.8378 2.32495 0.873582 3.7079
4 10.713 69.4403 58.2062 2.47901 -1.27986 -2.44168
5 24.1678 17.9108 99.8958 -1.93937 2.65063 4.30449
6 30.5749 52.9981 70.7593 -2.95126 -1.22854 -3.81871
7 60.3566 49.7454 37.9674 -1.94783 -2.69726 3.28218
8 59.7421 32.7239 72.3908 -2.43598 3.71076 -2.07037
9 12.8035 53.3326 5.63491 3.73167 3.87414 -1.48836
10 56.7438 17.414 66.5415 1.16008 0.250348 -2.41794
11 94.4207 33.4503 62.6436 3.56394 -1.26572 4.29014
12 46.3606 9.8789 14.0341 3.89553 3.83229 -3.66979
13 55.5777 9.93178 14.9135 3.67058 3.46096 -1.06117
14 43.0674 22.9993 23.5256 -3.319 1.81535 0.878246
15 57.375 7.50169 73.3783 -2.14934 -2.60865 4.415
16 58.2911 39.7734 28.7758 -1.59703 0.40887 1.95777
17 89.404 17.5198 40.4133 0.945835 0.136959 -0.877212
18 63.6009 88.6099 98.1738 0.895367 -1.34625 2.08983
19 50.9269 71.3702 68.9818 -3.14555 0.415662 -3.62213
20 21.1433 30.6196 42.4773 0.623548 -2.64088 1.59104
21 79.2692 54.2373 28.3851 3.83569 -1.26285 1.22898
22 36.3716 29.5526 64.0912 -0.276193 -3.30065 -2.89444
23 13.7369 44.7197 72.0311 0.513082 -3.29454 -2.83038
24 4.62658 1.64934 43.8863 -0.527004 -2.16987 -2.1021
25 63.7072 45.3767 67.419 0.691688 -3.47642 2.14655
26 7.90236 69.8335 4.7769 0.767675 -0.729203 -1.65769
27 78.4998 73.5754 92.8257 3.41781 -2.63134 -0.650232
28 67.3381 33.9334 15.6346 1.21116 3.45517 4.2772
29 76.4574 98.0003 33.0968 0.144456 1.97316 1.8049
30 41.6241 9.38018 12.4306 -2.41898 -1.49907 -0.484258
31 27.6975 79.0942 2.92298 2.53865 0.515009 -1.68798
32 44.9779 78.7016 72.3566 -1.11269 -1.5875 1.38351
33 34.0635 69.874 16.1026 -3.05196 -0.290326 2.06231
34 2.36653 89.7735 66.4304 -3.8267 -3.97884 -0.347956
35 88.6921 21.8892 88.3341 1.22112 -0.233356 1.64657
36 46.7511 30.3969 29.3078 -3.55206 1.84663 -3.69479
37 82.01 63.2603 89.2707 2.47463 2.1748 3.8315
38 52.2727 62.346 92.9639 1.52944 -1.24171 -2.79154
39 90.258 22.6955 76.4435 2.31395 4.24411 -1.28746
40 67.3886 49.8828 71.0589 -0.654293 -3.32051 -3.04521
41 45.5943 72.0829 84.8374 -1.8666 2.63335 -3.85322
42 0.24396 13.8529 32.8772 -0.373038 2.60877 2.07213
43 26.0952 72.8363 7.06785 -1.29823 1.84821 -2.74204
44 93.4131 60.8289 55.1395 -4.00588 3.56594 1.57269
45 8.5103 12.4254 29.3333 3.35575 -2.25605 3.43752
46 15.9239 10.9795 24.8847 -0.210951 -1.5373 -1.58801
47 72.569 31.506 52.4175 2.77889 1.27202 3.50829
48 32.9261 88.4066 34.3051 0.239572 1.20843 3.85248
49 28.1454 10.9208 99.437 3.48501 -2.20624 2.4331
50 92.5923 2.5944 76.9412 1.54174 0.151378 1.98008
51 87.5408 64.6602 42.2508 -0.317096 2.02464 3.16198
52 51.8371 56.9073 24.0649 -4.20219 -2.95554 -1.30739
53 56.6784 64.172 79.8712 -1.98724 2.09243 -3.49421
54 31.6565 73.3975 2.55782 3.78188 1.05812 0.59879
55 85.8945 79.4978 88.7596 -3.51113 -3.05682 -1.61633
56 41.2839 62.9583 15.8263 -2.86181 -3.18355 -1.97531
57 53.3792 88.8521 46.9551 1.97012 -1.43999 0.357705
58 74.0374 31.2908 25.1377 -1.40958 3.42686 -1.19288
59 92.314 60.6935 52.2969 -1.83234 -3.18572 4.38377
60 69.7798 88.9888 18.2856 3.68795 -3.90794 2.4617
61 56.8551 20.4497 27.6994 3.26386 1.39239 -0.510348
62 73.5227 6.12193 60.3599 0.226822 0.7506 -2.04664
63 89.2752 18.1105 48.4125 0.631418 1.35035 2.7357
64 69.4959 5.52142 96.7573 -1.53331 2.14381 -3.89423
65 72.0722 81.9703 20.0292 3.13672 2.68315 3.48788
66 0.296133 49.8695 89.5008 -0.681499 1.26911 -2.7484
67 50.3519 84.7179 32.1501 0.332323 3.47628 -0.096007
68 28.1657 4.11156 36.1284 2.11362 -1.46761 -1.95536
69 54.0941 68.0596 74.2491 3.67858 1.07541 0.343643
70 16.0066 71.8383 46.9726 1.72768 3.49853 -2.55704
71 16.8659 41.0878 67.8972 0.624072 -2.38612 -1.73919
72 9.42589 87.445 20.2059 2.06261 -3.6088 1.06076
73 9.67982 24.6007 37.77 3.40815 -2.58601 0.0184681
74 84.6126 34.3966 85.3345 1.72572 -3.66612 4.18163
75 3.16021 95.1887 24.6119 1.9261 2.87007 -2.4123
76 79.7175 39.1363 53.9468 -4.19641 0.130607 3.55611
77 95.7951 60.4968 62.4262 0.0804045 3.10167 -1.3603
78 39.8755 20.3092 5.02847 -1.82475 -3.77125 -1.0121
79 64.0109 6.51623 0.625013 0.386158 1.6872 2.23844
80 23.3809 69.6545 2.28311 -2.86303 2.00002 -0.0820498
81 40.9713 44.3485 74.3367 -2.78482 -0.604836 1.70408
82 45.4276 82.7732 41.1338 -3.4273 3.36521 -2.38681
83 40.6863 81.4919 26.6009 -3.41133 -2.01408 -0.88014
84 21.5909 52.7867 70.0405 3.00469 -1.17164 3.17014
85 6.32919 4.79242 84.8679 -3.9626 3.99981 -1.99512
86 51.9931 53.5819 8.41062 2.61135 -0.782508 0.488299
87 47.1764 58.8666 3.96005 3.96813 1.0317 1.23454
88 19.101 8.10841 74.5219 -0.806392 -2.37606 -3.67604
89 78.2662 71.1641 62.2384 1.2484 -3.57908 -4.06655
90 58.5685 21.1086 43.1381 -2.21269 1.81965 -3.91482
91 11.7159 4.92312 23.3445 -0.708565 -0.33357 2.24012
92 69.2035 76.1448 98.4085 -0.324675 2.93582 -0.582158
93 40.9959 31.4357 45.5249 -0.730258 2.84924 -1.83156
94 75.777 93.5757 99.2784 -2.39088 0.390545 1.8664
95 3.37307 72.1267 73.3143 -3.66638 -3.7364 3.15665
96 40.4395 89.3965 3.3071 0.21103 0.456895 -3.39318
97 33.9189 48.6663 76.3337 -0.206735 0.901126 -3.77702
98 13.6441 91.1425 11.1729 -2.58754 -3.42553 2.27896
99 67.7434 92.9354 7.19145 2.46394 1.97262 1.23006
100 33.0958 74.0717 81.5792 0.794041 -2.33159 -0.404197
ITEM: TIMESTEP
100
ITEM: NUMBER OF ATOMS
100
ITEM: BOX BOUNDS ff ff ff
0.0000000000000000e+00 1.0000000000000000e+02
0.0000000000000000e+00 1.0000000000000000e+02
0.0000000000000000e+00 1.0000000000000000e+02
ITEM: ATOMS id x y z vx vy vz
1 90.7254 33.7804 98.6202 -3.39831 3.00378 3.99504
2 94.5504 92.6835 4.78487 -3.91779 -4.03043 -3.67292
3 92.5446 88.8323 36.0232 2.32495 0.873582 3.7079
4 10.8369 69.3763 58.0842 2.47901 -1.27986 -2.44168
5 24.0708 18.0434 99.889 -1.93937 2.65063 -4.30449
6 30.4274 52.9366 70.5684 -2.95126 -1.22854 -3.81871
7 60.2592 49.6106 38.1315 -1.94783 -2.69726 3.28218
8 59.6203 32.9095 72.2873 -2.43598 3.71076 -2.07037
9 12.9901 53.5263 5.56049 3.73167 3.87414 -1.48836
10 56.8018 17.4265 66.4206 1.16008 0.250348 -2.41794
11 94.5989 33.387 62.8581 3.56394 -1.26572 4.29014
12 46.5554 10.0705 13.8506 3.89553 3.83229 -3.66979
13 55.7612 10.1048 14.8605 3.67058 3.46096 -1.06117
14 42.9015 23.0901 23.5696 -3.319 1.81535 0.878246
15 57.2675 7.37126 73.599 -2.14934 -2.60865 4.415
16 58.2112 39.7939 28.8737 -1.59703 0.40887 1.95777
17 89.4513 17.5267 40.3694 0.945835 0.136959 -0.877212
18 63.6457 88.5426 98.2783 0.895367 -1.34625 2.08983
19 50.7696 71.391 68.8007 -3.14555 0.415662 -3.62213
20 21.1744 30.4875 42.5569 0.623548 -2.64088 1.59104
21 79.461 54.1742 28.4466 3.83569 -1.26285 1.22898
22 36.3578 29.3876 63.9465 -0.276193 -3.30065 -2.89444
23 13.7626 44.5549 71.8895 0.513082 -3.29454 -2.83038
24 4.60023 1.54085 43.7812 -0.527004 -2.16987 -2.1021
25 63.7418 45.2029 67.5264 0.691688 -3.47642 2.14655
26 7.94074 69.7971 4.69401 0.767675 -0.729203 -1.65769
27 78.6707 73.4438 92.7931 3.41781 -2.63134 -0.650232
28 67.3987 34.1062 15.8485 1.21116 3.45517 4.2772
29 76.4646 98.099 33.1871 0.144456 1.97316 1.8049
30 41.5032 9.30523 12.4064 -2.41898 -1.49907 -0.484258
31 27.8245 79.1199 2.83858 2.53865 0.515009 -1.68798
32 44.9223 78.6223 72.4257 -1.11269 -1.5875 1.38351
33 33.9109 69.8595 16.2057 -3.05196 -0.290326 2.06231
34 2.17519 89.5745 66.413 -3.8267 -3.97884 -0.347956
35 88.7532 21.8776 88.4164 1.22112 -0.233356 1.64657
36 46.5735 30.4893 29.1231 -3.55206 1.84663 -3.69479
37 82.1338 63.3691 89.4622 2.47463 2.1748 3.8315
38 52.3492 62.2839 92.8243 1.52944 -1.24171 -2.79154
39 90.3737 22.9077 76.3791 2.31395 4.24411 -1.28746
40 67.3559 49.7168 70.9066 -0.654293 -3.32051 -3.04521
41 45.501 72.2146 84.6447 -1.8666 2.63335 -3.85322
42 0.225308 13.9833 32.9808 -0.373038 2.60877 2.07213
43 26.0303 72.9287 6.93075 -1.29823 1.84821 -2.74204
44 93.2128 61.0072 55.2182 -4.00588 3.56594 1.57269
45 8.67808 12.3126 29.5052 3.35575 -2.25605 3.43752
46 15.9134 10.9027 24.8053 -0.210951 -1.5373 -1.58801
47 72.7079 31.5696 52.5929 2.77889 1.27202 3.50829
48 32.9381 88.467 34.4977 0.239572 1.20843 3.85248
49 28.3196 10.8105 99.5586 3.48501 -2.20624 2.4331
50 92.6694 2.60197 77.0402 1.54174 0.151378 1.98008
51 87.5249 64.7614 42.4089 -0.317096 2.02464 3.16198
52 51.627 56.7595 23.9995 -4.20219 -2.95554 -1.30739
53 56.5791 64.2766 79.6965 -1.98724 2.09243 -3.49421
54 31.8456 73.4504 2.58776 3.78188 1.05812 0.59879
55 85.719 79.345 88.6788 -3.51113 -3.05682 -1.61633
56 41.1408 62.7992 15.7276 -2.86181 -3.18355 -1.97531
57 53.4777 88.7801 46.973 1.97012 -1.43999 0.357705
58 73.9669 31.4622 25.0781 -1.40958 3.42686 -1.19288
59 92.2224 60.5342 52.5161 -1.83234 -3.18572 4.38377
60 69.9642 88.7934 18.4086 3.68795 -3.90794 2.4617
61 57.0183 20.5193 27.6739 3.26386 1.39239 -0.510348
62 73.5341 6.15946 60.2576 0.226822 0.7506 -2.04664
63 89.3068 18.178 48.5493 0.631418 1.35035 2.7357
64 69.4192 5.62861 96.5626 -1.53331 2.14381 -3.89423
65 72.2291 82.1044 20.2036 3.13672 2.68315 3.48788
66 0.262058 49.9329 89.3634 -0.681499 1.26911 -2.7484
67 50.3685 84.8917 32.1453 0.332323 3.47628 -0.096007
68 28.2713 4.03818 36.0307 2.11362 -1.46761 -1.95536
69 54.278 68.1134 74.2663 3.67858 1.07541 0.343643
70 16.093 72.0133 46.8447 1.72768 3.49853 -2.55704
71 16.8971 40.9685 67.8102 0.624072 -2.38612 -1.73919
72 9.52902 87.2645 20.259 2.06261 -3.6088 1.06076
73 9.85023 24.4714 37.7709 3.40815 -2.58601 0.0184681
74 84.6989 34.2133 85.5436 1.72572 -3.66612 4.18163
75 3.25651 95.3322 24.4913 1.9261 2.87007 -2.4123
76 79.5077 39.1428 54.1246 -4.19641 0.130607 3.55611
77 95.7991 60.6518 62.3582 0.0804045 3.10167 -1.3603
78 39.7842 20.1206 4.97786 -1.82475 -3.77125 -1.0121
79 64.0302 6.60059 0.736935 0.386158 1.6872 2.23844
80 23.2378 69.7545 2.279 -2.86303 2.00002 -0.0820498
81 40.832 44.3183 74.4219 -2.78482 -0.604836 1.70408
82 45.2563 82.9415 41.0144 -3.4273 3.36521 -2.38681
83 40.5157 81.3912 26.5569 -3.41133 -2.01408 -0.88014
84 21.7411 52.7281 70.199 3.00469 -1.17164 3.17014
85 6.13106 4.99241 84.7682 -3.9626 3.99981 -1.99512
86 52.1237 53.5428 8.43504 2.61135 -0.782508 0.488299
87 47.3748 58.9182 4.02178 3.96813 1.0317 1.23454
88 19.0607 7.9896 74.3381 -0.806392 -2.37606 -3.67604
89 78.3286 70.9851 62.0351 1.2484 -3.57908 -4.06655
90 58.4579 21.1996 42.9424 -2.21269 1.81965 -3.91482
91 11.6805 4.90644 23.4565 -0.708565 -0.33357 2.24012
92 69.1873 76.2916 98.3794 -0.324675 2.93582 -0.582158
93 40.9594 31.5782 45.4333 -0.730258 2.84924 -1.83156
94 75.6575 93.5953 99.3717 -2.39088 0.390545 1.8664
95 3.18976 71.9399 73.4721 -3.66638 -3.7364 3.15665
96 40.4501 89.4194 3.13744 0.21103 0.456895 -3.39318
97 33.9086 48.7113 76.1448 -0.206735 0.901126 -3.77702
98 13.5148 90.9712 11.2868 -2.58754 -3.42553 2.27896
99 67.8666 93.034 7.25296 2.46394 1.97262 1.23006
100 33.1355 73.9551 81.559 0.794041 -2.33159 -0.404197
ITEM: TIMESTEP
150
ITEM: NUMBER OF ATOMS
100
ITEM: BOX BOUNDS ff ff ff
0.0000000000000000e+00 1.0000000000000000e+02
0.0000000000000000e+00 1.0000000000000000e+02
0.0000000000000000e+00 1.0000000000000000e+02
ITEM: ATOMS id x y z vx vy vz
1 90.5555 33.9306 98.8199 -3.39831 3.00378 3.99504
2 94.3545 92.482 4.60122 -3.91779 -4.03043 -3.67292
3 92.6608 88.8759 36.2086 2.32495 0.873582 3.7079
4 10.9609 69.3123 57.9621 2.47901 -1.27986 -2.44168
5 23.9739 18.1759 99.6738 -1.93937 2.65063 -4.30449
6 30.2798 52.8752 70.3774 -2.95126 -1.22854 -3.81871
7 60.1618 49.4757 38.2956 -1.94783 -2.69726 3.28218
8 59.4985 33.095 72.1838 -2.43598 3.71076 -2.07037
9 13.1767 53.72 5.48607 3.73167 3.87414 -1.48836
10 56.8598 17.439 66.2997 1.16008 0.250348 -2.41794
11 94.7771 33.3237 63.0726 3.56394 -1.26572 4.29014
12 46.7502 10.2621 13.6671 3.89553 3.83229 -3.66979
13 55.9448 10.2779 14.8074 3.67058 3.46096 -1.06117
14 42.7355 23.1808 23.6135 -3.319 1.81535 0.878246
15 57.1601 7.24083 73.8198 -2.14934 -2.60865 4.415
16 58.1313 39.8143 28.9716 -1.59703 0.40887 1.95777
17 89.4985 17.5335 40.3256 0.945835 0.136959 -0.877212
18 63.6905 88.4753 98.3828 0.895367 -1.34625 2.08983
19 50.6123 71.4117 68.6196 -3.14555 0.415662 -3.62213
20 21.2056 30.3555 42.6364 0.623548 -2.64088 1.59104
21 79.6528 54.1111 28.508 3.83569 -1.26285 1.22898
22 36.344 29.2225 63.8018 -0.276193 -3.30065 -2.89444
23 13.7882 44.3902 71.748 0.513082 -3.29454 -2.83038
24 4.57388 1.43236 43.6761 -0.527004 -2.16987 -2.1021
25 63.7764 45.029 67.6337 0.691688 -3.47642 2.14655
26 7.97913 69.7606 4.61113 0.767675 -0.729203 -1.65769
27 78.8416 73.3123 92.7606 3.41781 -2.63134 -0.650232
28 67.4592 34.2789 16.0623 1.21116 3.45517 4.2772
29 76.4718 98.1976 33.2773 0.144456 1.97316 1.8049
30 41.3822 9.23027 12.3821 -2.41898 -1.49907 -0.484258
31 27.9514 79.1457 2.75418 2.53865 0.515009 -1.68798
32 44.8666 78.5429 72.4949 -1.11269 -1.5875 1.38351
33 33.7583 69.8449 16.3088 -3.05196 -0.290326 2.06231
34 1.98386 89.3756 66.3956 -3.8267 -3.97884 -0.347956
35 88.8142 21.8659 88.4987 1.22112 -0.233356 1.64657
36 46.3959 30.5816 28.9384 -3.55206 1.84663 -3.69479
37 82.2575 63.4778 89.6538 2.47463 2.1748 3.8315
38 52.4257 62.2219 92.6847 1.52944 -1.24171 -2.79154
39 90.4894 23.1199 76.3147 2.31395 4.24411 -1.28746
40 67.3232 49.5508 70.7544 -0.654293 -3.32051 -3.04521
41 45.4076 72.3463 84.4521 -1.8666 2.63335 -3.85322
42 0.206656 14.1137 33.0844 -0.373038 2.60877 2.07213
43 25.9654 73.0212 6.79364 -1.29823 1.84821 -2.74204
44 93.0125 61.1855 55.2968 -4.00588 3.56594 1.57269
45 8.84587 12.1998 29.677 3.35575 -2.25605 3.43752
46 15.9029 10.8258 24.7259 -0.210951 -1.5373 -1.58801
47 72.8469 31.6332 52.7683 2.77889 1.27202 3.50829
48 32.9501 88.5274 34.6903 0.239572 1.20843 3.85248
49 28.4939 10.7001 99.6803 3.48501 -2.20624 2.4331
50 92.7464 2.60954 77.1393 1.54174 0.151378 1.98008
51 87.5091 64.8626 42.567 -0.317096 2.02464 3.16198
52 51.4169 56.6117 23.9341 -4.20219 -2.95554 -1.30739
53 56.4797 64.3812 79.5218 -1.98724 2.09243 -3.49421
54 32.0347 73.5033 2.6177 3.78188 1.05812 0.59879
55 85.5434 79.1921 88.598 -3.51113 -3.05682 -1.61633
56 40.9977 62.64 15.6288 -2.86181 -3.18355 -1.97531
57 53.5762 88.7081 46.9909 1.97012 -1.43999 0.357705
58 73.8964 31.6335 25.0185 -1.40958 3.42686 -1.19288
59 92.1307 60.3749 52.7352 -1.83234 -3.18572 4.38377
60 70.1486 88.598 18.5317 3.68795 -3.90794 2.4617
61 57.1815 20.5889 27.6484 3.26386 1.39239 -0.510348
62 73.5454 6.19699 60.1553 0.226822 0.7506 -2.04664
63 89.3384 18.2455 48.686 0.631418 1.35035 2.7357
64 69.3425 5.7358 96.3678 -1.53331 2.14381 -3.89423
65 72.3859 82.2386 20.378 3.13672 2.68315 3.48788
66 0.227983 49.9964 89.226 -0.681499 1.26911 -2.7484
67 50.3851 85.0655 32.1405 0.332323 3.47628 -0.096007
68 28.377 3.9648 35.9329 2.11362 -1.46761 -1.95536
69 54.4619 68.1672 74.2835 3.67858 1.07541 0.343643
70 16.1794 72.1882 46.7169 1.72768 3.49853 -2.55704
71 16.9283 40.8492 67.7233 0.624072 -2.38612 -1.73919
72 9.63215 87.0841 20.312 2.06261 -3.6088 1.06076
73 10.0206 24.3421 37.7718 3.40815 -2.58601 0.0184681
74 84.7852 34.03 85.7527 1.72572 -3.66612 4.18163
75 3.35282 95.4757 24.3707 1.9261 2.87007 -2.4123
76 79.2979 39.1493 54.3024 -4.19641 0.130607 3.55611
77 95.8031 60.8069 62.2902 0.0804045 3.10167 -1.3603
78 39.693 19.932 4.92726 -1.82475 -3.77125 -1.0121
79 64.0495 6.68495 0.848858 0.386158 1.6872 2.23844
80 23.0946 69.8545 2.2749 -2.86303 2.00002 -0.0820498
81 40.6928 44.2881 74.5072 -2.78482 -0.604836 1.70408
82 45.0849 83.1097 40.8951 -3.4273 3.36521 -2.38681
83 40.3452 81.2905 26.5129 -3.41133 -2.01408 -0.88014
84 21.8913 52.6695 70.3575 3.00469 -1.17164 3.17014
85 5.93293 5.1924 84.6684 -3.9626 3.99981 -1.99512
86 52.2542 53.5036 8.45945 2.61135 -0.782508 0.488299
87 47.5732 58.9698 4.08351 3.96813 1.0317 1.23454
88 19.0204 7.8708 74.1543 -0.806392 -2.37606 -3.67604
89 78.3911 70.8062 61.8318 1.2484 -3.57908 -4.06655
90 58.3473 21.2906 42.7466 -2.21269 1.81965 -3.91482
91 11.6451 4.88977 23.5686 -0.708565 -0.33357 2.24012
92 69.171 76.4384 98.3503 -0.324675 2.93582 -0.582158
93 40.9228 31.7206 45.3417 -0.730258 2.84924 -1.83156
94 75.5379 93.6148 99.465 -2.39088 0.390545 1.8664
95 3.00644 71.753 73.6299 -3.66638 -3.7364 3.15665
96 40.4606 89.4422 2.96778 0.21103 0.456895 -3.39318
97 33.8982 48.7564 75.956 -0.206735 0.901126 -3.77702
98 13.3854 90.8 11.4008 -2.58754 -3.42553 2.27896
99 67.9898 93.1326 7.31446 2.46394 1.97262 1.23006
100 33.1752 73.8385 81.5388 0.794041 -2.33159 -0.404197
ITEM: TIMESTEP
200
ITEM: NUMBER OF ATOMS
100
ITEM: BOX BOUNDS ff ff ff
0.0000000000000000e+00 1.0000000000000000e+02
0.0000000000000000e+00 1.0000000000000000e+02
0.0000000000000000e+00 1.0000000000000000e+02
ITEM: ATOMS id x y z vx vy vz
1 90.3856 34.0807 99.0197 -3.39831 3.00378 3.99504
2 94.1586 92.2804 4.41757 -3.91779 -4.03043 -3.67292
3 92.777 88.9196 36.394 2.32495 0.873582 3.7079
4 11.0848 69.2483 57.84 2.47901 -1.27986 -2.44168
5 23.8769 18.3084 99.4586 -1.93937 2.65063 -4.30449
6 30.1322 52.8138 70.1865 -2.95126 -1.22854 -3.81871
7 60.0644 49.3408 38.4597 -1.94783 -2.69726 3.28218
8 59.3767 33.2805 72.0803 -2.43598 3.71076 -2.07037
9 13.3633 53.9137 5.41166 3.73167 3.87414 -1.48836
10 56.9178 17.4515 66.1788 1.16008 0.250348 -2.41794
11 94.9553 33.2604 63.2871 3.56394 -1.26572 4.29014
12 46.945 10.4537 13.4837 3.89553 3.83229 -3.66979
13 56.1283 10.4509 14.7543 3.67058 3.46096 -1.06117
14 42.5696 23.2716 23.6574 -3.319 1.81535 0.878246
15 57.0526 7.1104 74.0405 -2.14934 -2.60865 4.415
16 58.0515 39.8348 29.0694 -1.59703 0.40887 1.95777
17 89.5458 17.5404 40.2817 0.945835 0.136959 -0.877212
18 63.7353 88.408 98.4873 0.895367 -1.34625 2.08983
19 50.455 71.4325 68.4385 -3.14555 0.415662 -3.62213
20 21.2368 30.2234 42.716 0.623548 -2.64088 1.59104
21 79.8446 54.0479 28.5695 3.83569 -1.26285 1.22898
22 36.3302 29.0575 63.6571 -0.276193 -3.30065 -2.89444
23 13.8139 44.2255 71.6065 0.513082 -3.29454 -2.83038
24 4.54753 1.32386 43.571 -0.527004 -2.16987 -2.1021
25 63.8109 44.8552 67.741 0.691688 -3.47642 2.14655
26 8.01751 69.7241 4.52824 0.767675 -0.729203 -1.65769
27 79.0125 73.1807 92.7281 3.41781 -2.63134 -0.650232
28 67.5198 34.4517 16.2762 1.21116 3.45517 4.2772
29 76.4791 98.2963 33.3676 0.144456 1.97316 1.8049
30 41.2613 9.15532 12.3579 -2.41898 -1.49907 -0.484258
31 28.0783 79.1714 2.66978 2.53865 0.515009 -1.68798
32 44.811 78.4635 72.5641 -1.11269 -1.5875 1.38351
33 33.6057 69.8304 16.4119 -3.05196 -0.290326 2.06231
34 1.79252 89.1767 66.3782 -3.8267 -3.97884 -0.347956
35 88.8753 21.8542 88.5811 1.22112 -0.233356 1.64657
36 46.2183 30.6739 28.7536 -3.55206 1.84663 -3.69479
37 82.3812 63.5866 89.8454 2.47463 2.1748 3.8315
38 52.5021 62.1598 92.5452 1.52944 -1.24171 -2.79154
39 90.6051 23.3321 76.2504 2.31395 4.24411 -1.28746
40 67.2905 49.3848 70.6021 -0.654293 -3.32051 -3.04521
41 45.3143 72.4779 84.2594 -1.8666 2.63335 -3.85322
42 0.188005 14.2442 33.188 -0.373038 2.60877 2.07213
43 25.9005 73.1136 6.65654 -1.29823 1.84821 -2.74204
44 92.8122 61.3638 55.3754 -4.00588 3.56594 1.57269
45 9.01366 12.087 29.8489 3.35575 -2.25605 3.43752
46 15.8923 10.7489 24.6465 -0.210951 -1.5373 -1.58801
47 72.9858 31.6968 52.9438 2.77889 1.27202 3.50829
48 32.9621 88.5879 34.8829 0.239572 1.20843 3.85248
49 28.6681 10.5898 99.8019 3.48501 -2.20624 2.4331
50 92.8235 2.6171 77.2383 1.54174 0.151378 1.98008
51 87.4932 64.9639 42.7251 -0.317096 2.02464 3.16198
52 51.2067 56.4639 23.8688 -4.20219 -2.95554 -1.30739
53 56.3803 64.4858 79.3471 -1.98724 2.09243 -3.49421
54 32.2238 73.5562 2.64764 3.78188 1.05812 0.59879
55 85.3678 79.0393 88.5172 -3.51113 -3.05682 -1.61633
56 40.8546 62.4808 15.53 -2.86181 -3.18355 -1.97531
57 53.6747 88.6361 47.0088 1.97012 -1.43999 0.357705
58 73.826 31.8049 24.9588 -1.40958 3.42686 -1.19288
59 92.0391 60.2156 52.9544 -1.83234 -3.18572 4.38377
60 70.3329 88.4026 18.6548 3.68795 -3.90794 2.4617
61 57.3446 20.6585 27.6229 3.26386 1.39239 -0.510348
62 73.5568 6.23452 60.0529 0.226822 0.7506 -2.04664
63 89.3699 18.313 48.8228 0.631418 1.35035 2.7357
64 69.2659 5.84299 96.1731 -1.53331 2.14381 -3.89423
65 72.5427 82.3728 20.5524 3.13672 2.68315 3.48788
66 0.193908 50.0598 89.0886 -0.681499 1.26911 -2.7484
67 50.4017 85.2393 32.1357 0.332323 3.47628 -0.096007
68 28.4827 3.89142 35.8351 2.11362 -1.46761 -1.95536
69 54.6459 68.2209 74.3007 3.67858 1.07541 0.343643
70 16.2658 72.3631 46.589 1.72768 3.49853 -2.55704
71 16.9595 40.7299 67.6363 0.624072 -2.38612 -1.73919
72 9.73528 86.9036 20.365 2.06261 -3.6088 1.06076
73 10.191 24.2128 37.7727 3.40815 -2.58601 0.0184681
74 84.8715 33.8467 85.9618 1.72572 -3.66612 4.18163
75 3.44913 95.6192 24.2501 1.9261 2.87007 -2.4123
76 79.0881 39.1559 54.4802 -4.19641 0.130607 3.55611
77 95.8071 60.962 62.2221 0.0804045 3.10167 -1.3603
78 39.6018 19.7435 4.87665 -1.82475 -3.77125 -1.0121
79 64.0688 6.76931 0.96078 0.386158 1.6872 2.23844
80 22.9515 69.9545 2.2708 -2.86303 2.00002 -0.0820498
81 40.5535 44.2578 74.5924 -2.78482 -0.604836 1.70408
82 44.9136 83.278 40.7757 -3.4273 3.36521 -2.38681
83 40.1746 81.1898 26.4689 -3.41133 -2.01408 -0.88014
84 22.0416 52.6109 70.516 3.00469 -1.17164 3.17014
85 5.7348 5.39239 84.5687 -3.9626 3.99981 -1.99512
86 52.3848 53.4645 8.48387 2.61135 -0.782508 0.488299
87 47.7716 59.0214 4.14523 3.96813 1.0317 1.23454
88 18.98 7.752 73.9705 -0.806392 -2.37606 -3.67604
89 78.4535 70.6272 61.6285 1.2484 -3.57908 -4.06655
90 58.2366 21.3816 42.5509 -2.21269 1.81965 -3.91482
91 11.6096 4.87309 23.6806 -0.708565 -0.33357 2.24012
92 69.1548 76.5852 98.3212 -0.324675 2.93582 -0.582158
93 40.8863 31.8631 45.2502 -0.730258 2.84924 -1.83156
94 75.4184 93.6343 99.5584 -2.39088 0.390545 1.8664
95 2.82312 71.5662 73.7878 -3.66638 -3.7364 3.15665
96 40.4712 89.4651 2.79812 0.21103 0.456895 -3.39318
97 33.8879 48.8014 75.7671 -0.206735 0.901126 -3.77702
98 13.256 90.6287 11.5147 -2.58754 -3.42553 2.27896
99 68.113 93.2313 7.37596 2.46394 1.97262 1.23006
100 33.2149 73.7219 81.5186 0.794041 -2.33159 -0.404197
ITEM: TIMESTEP
250
ITEM: NUMBER OF ATOMS
100
ITEM: BOX BOUNDS ff ff ff
0.0000000000000000e+00 1.0000000000000000e+02
0.0000000000000000e+00 1.0000000000000000e+02
0.0000000000000000e+00 1.0000000000000000e+02
ITEM: ATOMS id x y z vx vy vz
1 90.2157 34.2309 99.2194 -3.39831 3.00378 3.99504
2 93.9627 92.0789 4.23393 -3.91779 -4.03043 -3.67292
3 92.8933 88.9633 36.5794 2.32495 0.873582 3.7079
4 11.2088 69.1843 57.7179 2.47901 -1.27986 -2.44168
5 23.7799 18.4409 99.2433 -1.93937 2.65063 -4.30449
6 29.9847 52.7524 69.9955 -2.95126 -1.22854 -3.81871
7 59.967 49.206 38.6238 -1.94783 -2.69726 3.28218
8 59.2549 33.4661 71.9768 -2.43598 3.71076 -2.07037
9 13.5499 54.1074 5.33724 3.73167 3.87414 -1.48836
10 56.9758 17.4641 66.0579 1.16008 0.250348 -2.41794
11 95.1335 33.1971 63.5017 3.56394 -1.26572 4.29014
12 47.1397 10.6454 13.3002 3.89553 3.83229 -3.66979
13 56.3118 10.624 14.7013 3.67058 3.46096 -1.06117
14 42.4036 23.3624 23.7013 -3.319 1.81535 0.878246
15 56.9451 6.97997 74.2613 -2.14934 -2.60865 4.415
16 57.9716 39.8552 29.1673 -1.59703 0.40887 1.95777
17 89.5931 17.5472 40.2379 0.945835 0.136959 -0.877212
18 63.78 88.3407 98.5918 0.895367 -1.34625 2.08983
19 50.2978 71.4533 68.2574 -3.14555 0.415662 -3.62213
20 21.268 30.0914 42.7955 0.623548 -2.64088 1.59104
21 80.0363 53.9848 28.6309 3.83569 -1.26285 1.22898
22 36.3164 28.8925 63.5123 -0.276193 -3.30065 -2.89444
23 13.8395 44.0608 71.465 0.513082 -3.29454 -2.83038
24 4.52118 1.21537 43.4659 -0.527004 -2.16987 -2.1021
25 63.8455 44.6814 67.8483 0.691688 -3.47642 2.14655
26 8.0559 69.6877 4.44536 0.767675 -0.729203 -1.65769
27 79.1833 73.0491 92.6956 3.41781 -2.63134 -0.650232
28 67.5803 34.6245 16.49 1.21116 3.45517 4.2772
29 76.4863 98.3949 33.4578 0.144456 1.97316 1.8049
30 41.1403 9.08037 12.3337 -2.41898 -1.49907 -0.484258
31 28.2053 79.1972 2.58539 2.53865 0.515009 -1.68798
32 44.7554 78.3841 72.6333 -1.11269 -1.5875 1.38351
33 33.4531 69.8159 16.515 -3.05196 -0.290326 2.06231
34 1.60119 88.9777 66.3608 -3.8267 -3.97884 -0.347956
35 88.9363 21.8426 88.6634 1.22112 -0.233356 1.64657
36 46.0407 30.7663 28.5689 -3.55206 1.84663 -3.69479
37 82.505 63.6953 90.037 2.47463 2.1748 3.8315
38 52.5786 62.0977 92.4056 1.52944 -1.24171 -2.79154
39 90.7208 23.5443 76.186 2.31395 4.24411 -1.28746
40 67.2577 49.2187 70.4498 -0.654293 -3.32051 -3.04521
41 45.221 72.6096 84.0668 -1.8666 2.63335 -3.85322
42 0.169353 14.3746 33.2916 -0.373038 2.60877 2.07213
43 25.8355 73.206 6.51944 -1.29823 1.84821 -2.74204
44 92.6119 61.5421 55.4541 -4.00588 3.56594 1.57269
45 9.18145 11.9742 30.0208 3.35575 -2.25605 3.43752